<VTKFile type="UnstructuredGrid" version="0.1" byte_order="LittleEndian">
  <UnstructuredGrid>
    <Piece NumberOfPoints="13577" NumberOfCells="26965">
      <Points>
        <DataArray type = "Float64" NumberOfComponents="3" format="ascii">
0 0 0.0 
14 0 0.0 
14 8 0.0 
0 8 0.0 
0.383893 2.91152 0.0 
5.18302 3.76268 0.0 
4.05908 4.0108 0.0 
7.22865 0 0.0 
4.5037 4.01191 0.0 
2.92108 4.80682 0.0 
4.71924 4.00853 0.0 
4.07057 3.9639 0.0 
4.53824 7.43039 0.0 
2.13109 6.65473 0.0 
3.98741 4.04054 0.0 
3.98768 4.02653 0.0 
4.32046 1.78582 0.0 
4.68458 4.02212 0.0 
4.51774 3.98494 0.0 
4.04684 4.34892 0.0 
4.03302 4.01898 0.0 
4.47538 4.03375 0.0 
4.67405 4.10923 0.0 
4.1789 4.0308 0.0 
4.80484 4.03022 0.0 
4.61584 4.00791 0.0 
12.1265 0 0.0 
4.2321 4.07437 0.0 
4.22554 4.07149 0.0 
3.95595 4.06684 0.0 
3.63045 3.86578 0.0 
4.13489 4.05432 0.0 
6.40969 2.27914 0.0 
4.05959 4.04241 0.0 
4.37384 4.03227 0.0 
4.01003 3.99134 0.0 
4.04663 4.02704 0.0 
0 3.36284 0.0 
4.93697 3.93496 0.0 
4.37621 3.99353 0.0 
0.762019 5.13086 0.0 
10.1734 4.4195 0.0 
4.0273 4.01367 0.0 
12.0185 5.47289 0.0 
4.09718 3.98531 0.0 
4.62342 4.01415 0.0 
3.99474 4.00051 0.0 
5.17517 4.1161 0.0 
4.10206 3.96084 0.0 
9.00321 4.86505 0.0 
0.384822 4.35157 0.0 
4.12607 4.05951 0.0 
4.61497 3.93963 0.0 
4.2483 4.03635 0.0 
4.0955 3.94899 0.0 
4.03444 4.04627 0.0 
4.00163 4.02959 0.0 
4.02005 3.99731 0.0 
5.23503 8 0.0 
4.30375 3.97965 0.0 
4.06524 4.00004 0.0 
4.31418 3.99345 0.0 
5.35828 4.09214 0.0 
1.60222 4.99327 0.0 
4.51885 4.03101 0.0 
3.84748 3.99974 0.0 
1.90366 8 0.0 
4.00323 4.0083 0.0 
4.27512 3.99154 0.0 
5.25234 4.08083 0.0 
4.02301 3.98731 0.0 
4.15825 4.03374 0.0 
4.04672 4.0202 0.0 
4.94501 3.90266 0.0 
4.12968 3.98692 0.0 
4.54772 3.97659 0.0 
3.96947 4.02134 0.0 
4.09058 3.99334 0.0 
4.94157 3.98326 0.0 
3.96297 3.96024 0.0 
4.21254 3.97074 0.0 
4.34937 4.01678 0.0 
13.4868 6.98366 0.0 
4.11692 3.94964 0.0 
4.35459 4.03786 0.0 
3.95785 3.95439 0.0 
4.93904 4.11785 0.0 
4.02972 4.04518 0.0 
4.72673 4.01395 0.0 
3.97141 4.03046 0.0 
4.35664 3.99328 0.0 
3.97561 4.03322 0.0 
3.97816 4.02179 0.0 
4.04633 4.03304 0.0 
3.96767 4.02507 0.0 
4.53971 3.97638 0.0 
10.5041 5.31059 0.0 
4.19587 4.09386 0.0 
4.54225 3.97864 0.0 
5.01113 4.1034 0.0 
11.5614 2.86332 0.0 
4.54991 3.98013 0.0 
4.70958 7.08222 0.0 
4.73521 7.52615 0.0 
5.28595 3.9146 0.0 
4.31505 3.99148 0.0 
4.35714 4.03376 0.0 
4.51322 3.98638 0.0 
13.8261 5.94601 0.0 
6.49425 0.938237 0.0 
4.11581 4.05249 0.0 
4.21359 4.04577 0.0 
4.00988 3.97037 0.0 
1.06432 1.49826 0.0 
0.161642 7.53999 0.0 
4.37477 4.03898 0.0 
4.04752 3.98341 0.0 
4.04149 3.98321 0.0 
4.06565 4.03064 0.0 
4.51963 4.01192 0.0 
6.37297 2.73989 0.0 
6.50541 6.65271 0.0 
4.0914 3.96216 0.0 
5.21647 3.31361 0.0 
5.20281 3.96498 0.0 
7.42827 2.99581 0.0 
4.53992 4.00595 0.0 
4.65935 4.04515 0.0 
12.6474 3.41509 0.0 
4.05312 3.99197 0.0 
13.7435 8 0.0 
4.11702 4.02719 0.0 
6.67367 0 0.0 
4.00932 4.01975 0.0 
6.82471 4.26136 0.0 
4.20354 4.03712 0.0 
13.611 1.35207 0.0 
4.39543 3.99563 0.0 
4.58422 4.49873 0.0 
2.61514 0.506135 0.0 
4.88569 3.98105 0.0 
3.59733 3.72301 0.0 
0 7.10997 0.0 
6.22735 7.50315 0.0 
4.90839 4.00372 0.0 
4.2106 3.98877 0.0 
4.00813 4.01182 0.0 
5.29215 4.05791 0.0 
8.95603 7.57132 0.0 
13.0473 3.93225 0.0 
4.22222 4.09636 0.0 
3.98122 4.01031 0.0 
7.58428 5.24486 0.0 
10.2825 1.17587 0.0 
4.1403 4.03691 0.0 
4.05099 4.00074 0.0 
11.0142 2.68934 0.0 
4.00964 3.98933 0.0 
4.45409 2.45801 0.0 
4.54778 4.01674 0.0 
4.08927 3.9549 0.0 
10.4466 3.51766 0.0 
4.46798 4.00874 0.0 
4.53582 4.02647 0.0 
1.21408 1.2833 0.0 
4.09428 3.96323 0.0 
3.10914 5.59567 0.0 
4.98619 3.93198 0.0 
4.57455 4.08212 0.0 
4.18332 3.96996 0.0 
4.27576 3.95853 0.0 
4.26449 3.98943 0.0 
3.9183 4.01934 0.0 
12.0372 1.49526 0.0 
3.31161 1.01031 0.0 
4.70511 4.01377 0.0 
14 7.01974 0.0 
4.6253 3.98269 0.0 
5.11537 3.91723 0.0 
4.05399 4.05242 0.0 
11.1865 7.25481 0.0 
6.38052 3.13775 0.0 
5.9291 5.15993 0.0 
4.07026 4.09024 0.0 
4.32918 3.99209 0.0 
9.4176 1.73395 0.0 
4.20327 3.97947 0.0 
5.24537 4.1668 0.0 
4.47098 4.06213 0.0 
4.46368 4.04155 0.0 
10.7094 0 0.0 
4.06062 3.97377 0.0 
8.35832 2.9685 0.0 
13.4699 7.45697 0.0 
8.48286 5.04599 0.0 
4.01229 3.97705 0.0 
4.43249 4.03245 0.0 
3.76628 3.80113 0.0 
4.52953 3.9972 0.0 
4.09808 4.03387 0.0 
2.46913 6.85611 0.0 
4.00577 3.97873 0.0 
3.1002 2.25282 0.0 
5.25032 1.89548 0.0 
4.13223 5.72938 0.0 
4.31 3.99238 0.0 
7.62224 2.88267 0.0 
7.22419 0.703495 0.0 
4.06762 4.03041 0.0 
4.53802 4.03291 0.0 
4.55023 4.00834 0.0 
4.56283 3.99857 0.0 
3.81906 4.22338 0.0 
1.21547 8 0.0 
5.8599 3.0813 0.0 
3.49935 5.13977 0.0 
4.00773 4.00001 0.0 
3.05852 3.5058 0.0 
4.6207 4.09144 0.0 
4.51923 3.99802 0.0 
4.6103 3.91602 0.0 
4.01425 3.98947 0.0 
4.50639 3.99739 0.0 
4.11575 4.03408 0.0 
4.47104 4.01756 0.0 
4.20274 4.07949 0.0 
4.48766 4.04193 0.0 
12.5015 1.14918 0.0 
4.09797 3.95385 0.0 
4.23052 4.09368 0.0 
4.20868 4.08388 0.0 
3.93277 3.96019 0.0 
4.00241 3.93803 0.0 
4.20816 3.9787 0.0 
4.21025 4.03415 0.0 
3.69148 4.54393 0.0 
4.76297 3.98343 0.0 
1.48229 7.49998 0.0 
4.36276 4.0365 0.0 
3.98799 3.95955 0.0 
3.88327 3.53324 0.0 
8.82235 8 0.0 
4.23781 4.09881 0.0 
6.98691 2.68677 0.0 
4.00414 3.99309 0.0 
4.69512 3.9114 0.0 
4.52125 4.00859 0.0 
9.95861 3.60149 0.0 
4.06329 4.04721 0.0 
14 1.00091 0.0 
4.18805 3.96826 0.0 
4.22492 3.96395 0.0 
13.1818 2.98063 0.0 
4.55171 4.00358 0.0 
0.417479 6.31883 0.0 
4.38869 4.03196 0.0 
4.1797 3.98862 0.0 
4.19066 4.05025 0.0 
4.02321 3.97317 0.0 
3.98977 4.04663 0.0 
3.99153 4.04254 0.0 
4.57553 4.01147 0.0 
9.69483 7.24214 0.0 
9.69156 3.27159 0.0 
4.77978 4.48644 0.0 
3.97296 4.00674 0.0 
11.3714 7.19716 0.0 
9.192 5.81999 0.0 
6.52781 1.51786 0.0 
3.53429 0 0.0 
4.67134 3.89044 0.0 
4.08953 4.02996 0.0 
4.14091 4.04918 0.0 
2.30378 3.03595 0.0 
4.96928 3.97464 0.0 
9.65837 4.25696 0.0 
7.40997 8 0.0 
3.9023 6.84053 0.0 
2.86414 6.59491 0.0 
3.22048 3.32373 0.0 
9.9204 3.84008 0.0 
8.91842 0.967714 0.0 
13.1592 5.25121 0.0 
4.84915 4.03246 0.0 
6.78993 2.13526 0.0 
4.63883 4.00936 0.0 
0.846754 0.565038 0.0 
2.66717 0 0.0 
6.98728 5.60342 0.0 
4.2904 3.92587 0.0 
4.02904 3.9664 0.0 
7.59973 7.22298 0.0 
12.6277 1.80732 0.0 
14 4.58149 0.0 
5.85073 0.410811 0.0 
13.0902 7.46595 0.0 
4.12608 4.0407 0.0 
3.92932 4.2932 0.0 
8.8271 4.16844 0.0 
10.8933 4.2756 0.0 
4.09065 3.95069 0.0 
11.8702 0.212102 0.0 
4.51225 4.03393 0.0 
3.96066 4.00697 0.0 
12.9422 5.39238 0.0 
4.96395 4.01931 0.0 
13.1661 5.68046 0.0 
13.7895 0 0.0 
4.10795 4.02897 0.0 
4.44253 4.02264 0.0 
11.4357 2.10385 0.0 
4.84809 6.69312 0.0 
10.7133 0.399783 0.0 
4.00791 4.0033 0.0 
4.0088 3.9805 0.0 
9.75515 2.36072 0.0 
12.1557 3.04242 0.0 
9.70352 1.23095 0.0 
4.02947 3.97325 0.0 
4.34919 4.71232 0.0 
4.6454 3.91884 0.0 
4.01129 4.00596 0.0 
4.06073 4.07861 0.0 
8.4574 2.322 0.0 
4.34694 4.03542 0.0 
4.21339 4.02989 0.0 
4.01755 3.97046 0.0 
4.52386 4.04096 0.0 
4.3867 4.07987 0.0 
4.19209 4.05548 0.0 
6.42419 4.18044 0.0 
10.6153 7.62373 0.0 
4.05373 4.0206 0.0 
4.0593 4.0207 0.0 
14 3.14675 0.0 
4.08329 4.07118 0.0 
4.11868 3.97589 0.0 
4.15516 3.94365 0.0 
4.01695 3.96353 0.0 
3.58133 4.19857 0.0 
8.32777 8 0.0 
4.55143 4.02796 0.0 
4.19635 4.04727 0.0 
4.06566 3.98405 0.0 
6.34369 4.66265 0.0 
5.06461 4.08435 0.0 
4.00437 3.9841 0.0 
4.90953 3.97583 0.0 
4.0134 3.97877 0.0 
3.03193 6.72582 0.0 
3.14618 3.72715 0.0 
4.01079 3.9893 0.0 
3.84669 3.90466 0.0 
4.36156 4.08272 0.0 
2.48952 3.59766 0.0 
3.45027 4.08855 0.0 
6.64238 0.26606 0.0 
4.20001 4.03326 0.0 
0.195775 6.6876 0.0 
4.21639 4.03358 0.0 
4.55551 3.99979 0.0 
4.23202 4.04646 0.0 
11.5792 7.84461 0.0 
0.551344 1.2516 0.0 
4.02575 3.96118 0.0 
4.34194 4.0371 0.0 
6.49849 5.21743 0.0 
13.6945 7.80328 0.0 
0.348252 3.38744 0.0 
1.77684 6.77586 0.0 
11.2285 4.89288 0.0 
1.94587 1.61999 0.0 
4.15163 4.0447 0.0 
11.8351 6.74811 0.0 
14 3.84943 0.0 
4.1127 3.96242 0.0 
13.2903 7.45798 0.0 
4.15116 3.93854 0.0 
4.13176 4.07898 0.0 
10.2186 2.28825 0.0 
4.08932 3.98548 0.0 
4.21594 3.97337 0.0 
4.85957 4.01386 0.0 
4.1283 4.05439 0.0 
4.00279 3.99128 0.0 
4.05385 4.00986 0.0 
12.6381 7.48703 0.0 
4.55265 4.00324 0.0 
3.92693 3.99777 0.0 
6.32476 7.00417 0.0 
12.5996 5.63737 0.0 
4.64409 4.00438 0.0 
4.29631 3.98443 0.0 
4.44623 3.99087 0.0 
4.30033 6.55304 0.0 
4.01461 4.01826 0.0 
10.0323 4.54406 0.0 
3.90873 3.96016 0.0 
6.21686 4.3493 0.0 
13.5337 6.38237 0.0 
7.83547 2.82767 0.0 
6.3157 4.87688 0.0 
3.96806 4.01296 0.0 
11.0968 5.75296 0.0 
4.55406 3.99831 0.0 
4.42631 3.99455 0.0 
4.89402 3.94006 0.0 
5.0604 3.97687 0.0 
3.89892 4.03609 0.0 
4.5467 4.03146 0.0 
2.89315 5.49872 0.0 
4.96907 4.10551 0.0 
4.53595 4.04072 0.0 
7.20657 5.05296 0.0 
3.05391 4.40989 0.0 
5.99019 4.04483 0.0 
12.4015 3.01858 0.0 
3.84338 4.30647 0.0 
4.53323 4.0151 0.0 
5.30644 0.173765 0.0 
0.198711 3.79297 0.0 
4.72583 0.194576 0.0 
3.90471 2.31823 0.0 
4.1152 4.03957 0.0 
11.8107 0.651755 0.0 
3.77148 4.0081 0.0 
4.30989 4.04149 0.0 
6.73412 3.55133 0.0 
4.73668 3.89169 0.0 
4.04877 3.98924 0.0 
3.96886 4.00175 0.0 
4.64006 3.99672 0.0 
4.56073 4.06431 0.0 
4.36013 4.03352 0.0 
4.15101 4.79274 0.0 
1.1914 3.57636 0.0 
4.82507 4.1106 0.0 
4.48688 3.99579 0.0 
0.845864 1.62601 0.0 
0.347962 1.57688 0.0 
4.02586 3.98561 0.0 
10.151 2.94085 0.0 
7.00233 6.47926 0.0 
7.78364 0 0.0 
6.32437 6.34013 0.0 
4.1687 4.04589 0.0 
5.62592 4.80931 0.0 
4.7383 3.87602 0.0 
4.00565 4.00149 0.0 
7.6398 2.6807 0.0 
1.64832 6.43608 0.0 
13.7604 0.5867 0.0 
12.4886 4.91868 0.0 
8.67201 2.39205 0.0 
4.05514 4.08732 0.0 
4.25841 3.96952 0.0 
4.03014 4.02376 0.0 
4.53857 4.00516 0.0 
4.0104 4.03331 0.0 
4.11272 4.04576 0.0 
6.11869 4.72331 0.0 
6.85323 7.27439 0.0 
4.03795 3.98521 0.0 
4.52634 3.99753 0.0 
7.19396 5.74117 0.0 
6.95088 7.06331 0.0 
2.77495 7.51281 0.0 
7.34293 5.19319 0.0 
4.01841 4.01174 0.0 
4.54106 4.00722 0.0 
4.06133 4.25201 0.0 
7.14156 0.150746 0.0 
4.22809 3.98948 0.0 
4.04529 4.09541 0.0 
5.81593 4.04524 0.0 
4.295 4.04231 0.0 
[...]
<PointData>
  <DataArray type = "Float64" Name="Vitesse" NumberOfComponents="3" format="ascii">
1 0 0.0 
1.00286 0 0.0 
1.00066 0 0.0 
1 0 0.0 
0.999969 -0.00013638 0.0 
1.00976 0.00663113 0.0 
0 0 0.0 
1.00579 0 0.0 
1.31383e-05 -1.51011e-06 0.0 
0.997449 0.00677249 0.0 
0.23462 -0.000742131 0.0 
0.87461 -0.094578 0.0 
1.00523 0.00071841 0.0 
1.00116 0.0017158 0.0 
0.774375 0.197514 0.0 
0.682607 0.18922 0.0 
1.00517 -0.00307538 0.0 
0.229395 -0.0145038 0.0 
0.210634 0.00570935 0.0 
1.01895 0.0563047 0.0 
0 0 0.0 
0.133283 -0.0159608 0.0 
0.959366 -0.0453295 0.0 
0 0 0.0 
0.371595 -0.017308 0.0 
0.117893 -0.00181998 0.0 
1.00428 0 0.0 
0.803237 0.0259638 0.0 
0.752458 0.025521 0.0 
0.863815 0.110323 0.0 
0.971961 -0.0110082 0.0 
0.53885 0.0595414 0.0 
1.00737 -0.000129829 0.0 
0.689995 0.182059 0.0 
0.000221816 -1.66065e-05 0.0 
0.0732748 -0.0289657 0.0 
5.96191e-06 1.92441e-06 0.0 
1 0 0.0 
0.804234 0.0187188 0.0 
0.0265078 0.000840553 0.0 
0.999926 0.000701997 0.0 
1.00749 -0.00255021 0.0 
0 0 0.0 
1.00304 -0.00346765 0.0 
0.0183739 0.00159077 0.0 
0.132193 -0.00993073 0.0 
0.279621 -0.174422 0.0 
0.943223 -0.0160922 0.0 
0.816162 -0.0529089 0.0 
1.0069 -0.00162039 0.0 
0.99996 0.000203564 0.0 
0.761885 0.104526 0.0 
0.78772 0.0329172 0.0 
0 0 0.0 
1.03234 -0.0968854 0.0 
0.925153 0.31609 0.0 
0.72031 0.309349 0.0 
0 0 0.0 
1.00566 0 0.0 
0.221385 0.00577151 0.0 
0 0 0.0 
7.62164e-47 5.28656e-48 0.0 
0.857376 -0.012954 0.0 
0.999562 0.0017718 0.0 
0.146316 -0.0182863 0.0 
0.918195 -0.0045221 0.0 
1.00102 0 0.0 
0.0779873 0.0812573 0.0 
0.000187865 1.84608e-05 0.0 
0.807699 -0.0157644 0.0 
0.153546 -0.0395641 0.0 
0 0 0.0 
0 0 0.0 
0.948303 0.0166478 0.0 
5.63443e-46 -5.27113e-50 0.0 
0.347539 0.015141 0.0 
0.725615 0.0673988 0.0 
0 0 0.0 
0.469759 0.0104563 0.0 
0.859696 -0.137407 0.0 
0.391407 0.00454859 0.0 
0 0 0.0 
1.00098 -0.000963417 0.0 
0.981003 -0.0675057 0.0 
0.0479199 -0.00499113 0.0 
0.874323 -0.124853 0.0 
0.959608 -0.0248027 0.0 
0.913106 0.323816 0.0 
0.244912 -0.00591957 0.0 
0.750479 0.107061 0.0 
0.0194263 0.00116168 0.0 
0.75109 0.131388 0.0 
0.686488 0.104853 0.0 
0.43307 0.132836 0.0 
0.744096 0.0769059 0.0 
0.346088 0.0126857 0.0 
1.00565 -0.0023573 0.0 
1.0966 0.0879152 0.0 
0.315361 0.0121305 0.0 
0.910348 -0.0220525 0.0 
1.00525 0.00179354 0.0 
0.298847 0.0141171 0.0 
1.00581 0.0010429 0.0 
1.00539 0.000520118 0.0 
0.887112 0.00925993 0.0 
0.0247173 0.000821089 0.0 
0.000115331 -1.13811e-05 0.0 
0.18734 0.00496117 0.0 
1.00007 -0.0018238 0.0 
1.00602 -0.000225978 0.0 
0.583007 0.0841543 0.0 
0.0511421 -0.00119848 0.0 
0.963715 -0.325182 0.0 
1.00012 -0.000553395 0.0 
1 3.80542e-05 0.0 
0.0882565 -0.00919708 0.0 
0.176514 -0.00737301 0.0 
0.23289 -0.0270602 0.0 
2.4803e-89 6.07206e-90 0.0 
0.0111225 -0.00194685 0.0 
1.00782 0.000222993 0.0 
1.00673 -0.000379079 0.0 
0.823366 -0.062787 0.0 
1.01195 0.00128488 0.0 
0.637377 0.00947648 0.0 
1.00742 0.000473578 0.0 
0.00244103 -0.000461255 0.0 
0.396304 -0.0358493 0.0 
1.00958 0.00169887 0.0 
0 0 0.0 
1.00087 0 0.0 
0 0 0.0 
1.00573 0 0.0 
0.529186 0.307799 0.0 
1.00609 -0.00245711 0.0 
0 0 0.0 
1.00327 0.00115734 0.0 
1.21336e-46 8.31347e-48 0.0 
1.03326 -0.000772318 0.0 
1.00143 -0.000610788 0.0 
0.460155 0.0136924 0.0 
0.981856 -0.014815 0.0 
1 0 0.0 
1.00609 -2.59211e-05 0.0 
0.379403 0.00106649 0.0 
0.0130376 -7.15017e-05 0.0 
0.0803751 0.0455874 0.0 
0.691943 -0.0128426 0.0 
1.00498 -0.000221574 0.0 
0.968251 -0.00201204 0.0 
1.08826 0.0642376 0.0 
0.604979 0.0331173 0.0 
1.00723 -0.00150112 0.0 
1.0054 0.000425923 0.0 
0 0 0.0 
0 0 0.0 
1.0056 0.00151624 0.0 
0.360772 -0.149484 0.0 
1.0075 -0.00494313 0.0 
0.0604372 -0.0120488 0.0 
0.979673 -0.0923784 0.0 
1.00768 0.00251837 0.0 
0 0 0.0 
0.120458 -0.0171987 0.0 
1.0002 -0.000574183 0.0 
0.782473 -0.0540465 0.0 
1.00229 0.00587065 0.0 
0.822167 0.0170791 0.0 
0.788552 -0.0521866 0.0 
0.422282 0.00266024 0.0 
0.61061 0.00325302 0.0 
0.0312419 0.00157067 0.0 
0.856057 0.0116087 0.0 
1.00455 0.000953816 0.0 
1.00243 -0.00156876 0.0 
0.223729 -0.00574035 0.0 
1.00052 -0.000788395 0.0 
0.298388 0.0272867 0.0 
0.886734 0.0120264 0.0 
0.961604 0.27339 0.0 
1.00352 -0.000695118 0.0 
1.00839 0.000332209 0.0 
1.00945 -0.00225425 0.0 
1.04528 0.210692 0.0 
0.0237347 0.000726417 0.0 
1.00603 0.00056214 0.0 
0.199912 0.00454311 0.0 
1.00341 -0.0128864 0.0 
0.510897 -0.0371203 0.0 
0.212984 -0.0219605 0.0 
1.00501 0 0.0 
0.58635 -0.0574129 0.0 
1.00719 0.00068871 0.0 
1.00108 -0.00050764 0.0 
1.00711 -0.00156348 0.0 
0.930543 -0.339042 0.0 
0.0758621 -0.00924407 0.0 
0.970521 -0.0277479 0.0 
0.0297675 0.00100967 0.0 
0 0 0.0 
1.0017 0.00170934 0.0 
0.895684 -0.385244 0.0 
1.00124 -0.00404278 0.0 
1.00691 -0.00163888 0.0 
1.00807 0.00551115 0.0 
0.00737805 0.000577412 0.0 
1.00723 0.000441865 0.0 
1.00596 -1.8092e-05 0.0 
0 0 0.0 
0.182698 -0.0236332 0.0 
0.0199753 -0.00489032 0.0 
0.0342777 0.0129691 0.0 
0.97046 0.0433691 0.0 
1.00042 0 0.0 
1.00886 0.00050883 0.0 
1.00309 0.0104423 0.0 
0 0 0.0 
0.993755 -0.00461739 0.0 
0.866593 -0.0504837 0.0 
0.0138916 0.000396704 0.0 
0.950408 0.0267887 0.0 
0.154129 -0.0292499 0.0 
0.0187607 0.00134143 0.0 
0 0 0.0 
1.00265e-05 -5.89217e-07 0.0 
0.951309 0.0614591 0.0 
0.23891 -0.0248058 0.0 
1.00415 0.000812145 0.0 
0.96958 -0.0814922 0.0 
1.06474 0.0552559 0.0 
1.0009 0.0626604 0.0 
0.87558 -0.0771657 0.0 
0.965793 -0.189577 0.0 
0.217679 0.00452074 0.0 
0 0 0.0 
0.996976 0.0236104 0.0 
0.381741 0.0176098 0.0 
1.00059 0.000419051 0.0 
0.0403876 -0.0036418 0.0 
0.887087 -0.218329 0.0 
0.999245 -0.0272744 0.0 
1.00497 0 0.0 
1.08763 0.0540997 0.0 
1.00741 0.000279845 0.0 
0.25334 -0.175479 0.0 
0.950135 0.0281442 0.0 
3.74494e-07 -3.13487e-08 0.0 
1.00823 0.00218882 0.0 
0.815955 0.212115 0.0 
1.00289 0.000865833 0.0 
0.459945 0.00186061 0.0 
0.532269 0.00234728 0.0 
1.00445 0.00242403 0.0 
0.00299936 -0.000577063 0.0 
1.00003 0.000334594 0.0 
0.0196783 -0.00222814 0.0 
7.4026e-06 2.15353e-07 0.0 
0.20739 0.00545431 0.0 
0.950154 -0.259031 0.0 
0.804638 0.205416 0.0 
0.787215 0.217377 0.0 
0.0577768 -0.0182281 0.0 
1.00466 -0.000441767 0.0 
1.00717 0.00141084 0.0 
1.02581 -0.00784746 0.0 
0.675253 -0.0142663 0.0 
1.00334 -0.000785452 0.0 
1.00605 -0.00117837 0.0 
1.0065 -0.000251532 0.0 
1.00272 0 0.0 
1.01003 0.0239115 0.0 
0 0 0.0 
0.305342 0.0276076 0.0 
0.998495 -0.0020847 0.0 
0.530822 0.0130406 0.0 
0.993581 -0.00227707 0.0 
1.00563 0 0.0 
1.00471 0.00208384 0.0 
1.00239 0.00250397 0.0 
0.995249 -0.0072062 0.0 
0.943298 0.00250755 0.0 
1.00579 0.000257312 0.0 
1.00051 -0.00352875 0.0 
0.412667 -0.0165869 0.0 
1.00707 5.92379e-06 0.0 
0.148158 -0.00220558 0.0 
1.00013 -0.000181645 0.0 
1.00152 0 0.0 
1.00751 -0.00132665 0.0 
0.994656 -0.0164611 0.0 
1.02121 -0.245328 0.0 
1.00576 -0.000343728 0.0 
1.00419 0.00132432 0.0 
0.99861 -0.00276494 0.0 
1.00549 -0.000235768 0.0 
1.00146 -0.000541281 0.0 
-1.40629e-144 -2.71898e-146 0.0 
0.992771 0.0588068 0.0 
0.959065 -0.00320749 0.0 
0.9945 -0.00442799 0.0 
1.02738 -0.100885 0.0 
1.00446 0.000126359 0.0 
0.16974 -0.0201623 0.0 
0.747355 -0.0128121 0.0 
1.00099 -0.00344246 0.0 
0.420684 -0.00714385 0.0 
1.00068 -0.00271808 0.0 
1.00304 0 0.0 
0 0 0.0 
5.85584e-05 -5.36302e-06 0.0 
1.00511 0.00120707 0.0 
1.00665 0.00132495 0.0 
1.00505 0.000157956 0.0 
0 0 0.0 
0.878205 -0.367516 0.0 
1.00632 0.00090836 0.0 
1.00429 0.00204604 0.0 
1.00565 0.000398331 0.0 
0.89895 -0.208338 0.0 
1.02501 0.013441 0.0 
0.927586 0.0290775 0.0 
0 0 0.0 
1.03194 0.235364 0.0 
1.00677 0.000560472 0.0 
0.000813079 -6.54994e-05 0.0 
0 0 0.0 
0.994764 -0.302401 0.0 
0.259027 -0.0280095 0.0 
0.771357 -0.0283846 0.0 
0.376527 0.0142486 0.0 
0.993877 -0.00397786 0.0 
1.00396 -0.000289174 0.0 
0 0 0.0 
0 0 0.0 
1.00408 0.00388312 0.0 
1.05863 0.225671 0.0 
0.312521 -0.00145167 0.0 
0.97914 -0.0463157 0.0 
1.00655 -0.280583 0.0 
0.977583 0.0158063 0.0 
1.00522 0 0.0 
0.147454 -0.0236839 0.0 
0.104808 0.00352049 0.0 
0.0788023 -0.00453868 0.0 
1.00843 -0.00307448 0.0 
0.820382 -0.0214477 0.0 
0.804946 -0.413571 0.0 
0.503674 0.0140071 0.0 
0.892317 -0.319041 0.0 
1.00275 0.00233531 0.0 
0.990579 -0.00333638 0.0 
0.312457 -0.112649 0.0 
0.942398 -0.0379724 0.0 
0.821789 -0.0218205 0.0 
0.996493 -0.00109678 0.0 
0.980906 0.00548112 0.0 
1.00576 -5.77993e-05 0.0 
0 0 0.0 
1 0.000128692 0.0 
0 0 0.0 
1.48741e-08 8.68106e-11 0.0 
0.0789399 -0.00154141 0.0 
1.00306 -0.000154715 0.0 
1.00004 -0.000234403 0.0 
1.03633 -0.253101 0.0 
0.0199901 -0.00175093 0.0 
1.00816 -0.00191613 0.0 
1.0009 -0.000165794 0.0 
0.999969 -3.9253e-05 0.0 
1.00078 0.00125652 0.0 
1.00585 -0.00385641 0.0 
1.00045 -0.00131045 0.0 
0.084438 0.00326717 0.0 
1.00292 -0.00138545 0.0 
0.986927 0.00389999 0.0 
0.739685 -0.0362524 0.0 
1.00125 -0.000527895 0.0 
1.02895 -0.05571 0.0 
1.07102 0.153845 0.0 
1.00601 0.000970578 0.0 
0.00119322 -2.70945e-05 0.0 
0.333239 0.00515495 0.0 
0.348161 -0.00498389 0.0 
0.577962 0.0713437 0.0 
0.499822 -0.352516 0.0 
0 0 0.0 
1.00195 -0.000548043 0.0 
0.00264251 -0.00050469 0.0 
0.844617 -0.0237511 0.0 
1.00645 -0.000153315 0.0 
1.00167 -0.00316642 0.0 
0.162308 0.00411902 0.0 
0.134339 0.00437769 0.0 
0.09492 0.00280916 0.0 
1.00608 0.00237335 0.0 
0.299935 0.144429 0.0 
1.00842 -0.00266367 0.0 
0.892396 -0.051834 0.0 
1.00793 -0.00370587 0.0 
1.00069 -0.00156691 0.0 
1.00718 0.000495884 0.0 
1.00859 -0.00268388 0.0 
0.713551 0.021862 0.0 
1.00444 -0.00239179 0.0 
0.0194077 -0.00029664 0.0 
0.0331088 0.00179632 0.0 
0.771185 0.0207101 0.0 
0.543891 0.0100502 0.0 
0.883467 0.025209 0.0 
0.175889 -0.0248473 0.0 
1.0013 0.00540338 0.0 
0.919803 -0.0251274 0.0 
0.266112 -0.0297803 0.0 
1.00747 -0.00176275 0.0 
0.993603 0.00668308 0.0 
0.710074 -0.00577924 0.0 
1.00367 0.00224077 0.0 
0.984951 0.044383 0.0 
0.0376303 -0.0063193 0.0 
1.00505 -0.000155579 0.0 
0.999992 2.89854e-05 0.0 
1.00443 -0.000237998 0.0 
1.00447 -0.00548278 0.0 
1e-307 1e-307 0.0 
1.00454 0.000383279 0.0 
0.944534 0.00100464 0.0 
0.0490084 -0.00322756 0.0 
1.00822 0.000787223 0.0 
0.996097 0.0233246 0.0 
0 0 0.0 
0.706665 -0.0459603 0.0 
0.190549 0.0129845 0.0 
0.580394 -0.0485294 0.0 
4.39727e-05 -1.56575e-06 0.0 
1.01707 0.0173407 0.0 
0.999497 -5.6614e-05 0.0 
0.944925 -0.0335904 0.0 
0.0362702 0.00165154 0.0 
1.00006 -0.000443966 0.0 
1.00001 -0.000169433 0.0 
0.251485 -0.0480273 0.0 
1.00654 0.00134016 0.0 
1.00661 -0.000648517 0.0 
1.00578 0 0.0 
1.00722 -0.00048924 0.0 
0.0874415 0.0036857 0.0 
1.011 -0.00393859 0.0 
1.01521 0.0207984 0.0 
1e-307 0 0.0 
1.00718 0.000407627 0.0 
1.00057 0.00144223 0.0 
1.00309 0.000493268 0.0 
1.00024 -0.00505195 0.0 
1.00676 0.000635727 0.0 
1.0194 0.219973 0.0 
0.407385 0.00557348 0.0 
0.181973 0.0617208 0.0 
1.44101e-06 -2.40179e-07 0.0 
0.784851 0.342717 0.0 
0.31553 0.0440203 0.0 
1.00908 -0.00335818 0.0 
1.00605 -0.000224679 0.0 
0.130362 -0.017488 0.0 
0.0232672 0.000868232 0.0 
1.00721 -0.0011988 0.0 
1.00615 -0.000332792 0.0 
1.00221 0.000777813 0.0 
1.00736 -0.00154082 0.0 
0 0 0.0 
0.00758696 -0.00152776 0.0 
1.02395 0.0822894 0.0 
1.00581 -9.85518e-06 0.0 
0.0124727 0.000480165 0.0 
1.00176 0.205118 0.0 
0.696235 -0.00531662 0.0 
0.0440068 -0.00277672 0.0 
1.00166 0.000228807 0.0 
1.00694 0.000687765 0.0 
1.00749 0.00104451 0.0 
0.228079 0.0227903 0.0 
1.00583 -2.41369e-05 0.0 
1.00813 0.00487551 0.0 
0.00102541 -0.000120579 0.0 
1.00444 -0.00131963 0.0 
1.00352 0.00300568 0.0 
0.095102 0.0209109 0.0 
0.0645295 -0.00212088 0.0 
1.00681 0.0011686 0.0 
0.45286 -0.307297 0.0 
0.755222 0.0118802 0.0 
0.246175 -0.0108485 0.0 
0.123369 0.0730952 0.0 
0.802932 0.319095 0.0 
1.0076 -0.00236589 0.0 
1.00867 -0.00148952 0.0 
1.00538 0.00200646 0.0 
0.0207747 0.000299454 0.0 
1.03029 0.0128133 0.0 
0.815418 -0.0265891 0.0 
1.00021 -0.000713268 0.0 
1.00158 0.00244136 0.0 
0.903008 -0.00397554 0.0 
0.0205148 -0.00281199 0.0 
1.07165 0.0751805 0.0 
1.00926 -0.00162668 0.0 
0.692635 0.000812558 0.0 
1.00011 0.000801832 0.0 
0.066374 0.00140982 0.0 
2.68539e-06 3.40676e-06 0.0 
0.963594 -0.282941 0.0 
1.12213 0.0818716 0.0 
1.06563 0.0187913 0.0 
1.00552 -0.000567536 0.0 
0 0 0.0 
1.00629 -0.000932695 0.0 
0.924696 -0.305769 0.0 
0.997325 -0.000779734 0.0 
0.999357 0.000719043 0.0 
1.00661 0.000623815 0.0 
0 0 0.0 
1.00002 -0.000183653 0.0 
0.0184444 0.000376812 0.0 
0.999656 -0.00482126 0.0 
1.00646 0.00170898 0.0 
1.00597 0.000733471 0.0 
0.213657 0.0678858 0.0 
0.999977 6.9171e-06 0.0 
1.00476 0.000490561 0.0 
1.00024 0.000356512 0.0 
0.0131922 -0.000334498 0.0 
0.961768 -0.0447115 0.0 
1.0047 -0.000298748 0.0 
1.01012 0.00417217 0.0 
1.03056 -0.0259863 0.0 
1.01818 0.0100509 0.0 
0.998185 -0.00352446 0.0 
0.635606 0.0145202 0.0 
1.01344 -0.00625087 0.0 
0.705091 0.0906595 0.0 
1.00911 -0.00268502 0.0 
1.00131 0.0028546 0.0 
0.0148865 0.000918226 0.0 
0.0146259 -0.00095577 0.0 
1.00486 -0.000572311 0.0 
1.00863 -0.00270518 0.0 
0.0130077 -0.00225994 0.0 
1.00589 0.000541227 0.0 
1.00884 0.00196012 0.0 
0.90608 -0.0266557 0.0 
1.00003 0.000304082 0.0 
1.00609 0.0011315 0.0 
1.00699 -0.000627936 0.0 
1.00619 -0.000422154 0.0 
0.644519 -0.0271294 0.0 
1.00809 -0.00712786 0.0 
1.00537 -0.000164805 0.0 
1.00601 -0.000530017 0.0 
0.186058 -0.024163 0.0 
0.9997 0.0050527 0.0 
0.0895518 0.00140265 0.0 
0.00556325 -0.000294535 0.0 
0.384282 -0.0108615 0.0 
0.730274 -0.0166747 0.0 
0.0284917 0.00270814 0.0 
0 0 0.0 
6.6198e-06 -5.63684e-07 0.0 
0.962335 -0.0565787 0.0 
0.977384 0.00179293 0.0 
0 0 0.0 
0.283923 -0.0409464 0.0 
0.266319 -0.0109694 0.0 
1.0038 0 0.0 
0 0 0.0 
0.332031 -0.00589366 0.0 
1.00466 0.000209503 0.0 
1.08052 -0.134865 0.0 
0.407799 0.0267388 0.0 
1.00082 -0.00177382 0.0 
0.20364 0.0173691 0.0 
1.89844e-07 1.96275e-08 0.0 
1.0131 -0.00560209 0.0 
0.078379 0.000758272 0.0 
1.00394 0.000251804 0.0 
0 0 0.0 
1 0.000231918 0.0 
1.00566 -0.00126584 0.0 
0.18456 -0.0201814 0.0 
0.259709 0.0227898 0.0 
0.125159 0.0303906 0.0 
0.398196 0.0198226 0.0 
0.868856 -0.0164125 0.0 
0.862358 0.0304547 0.0 
0.99577 -0.000195263 0.0 
0.99912 0.000425387 0.0 
0.0307198 -0.0168274 0.0 
0.834036 0.117556 0.0 
0.00458147 -0.000465687 0.0 
1.00339 -0.00035885 0.0 
1.00079 0 0.0 
1.00104 -0.00132787 0.0 
0.0298941 -0.00457142 0.0 
0.978412 0.000170773 0.0 
0 0 0.0 
1.00742 0.000396337 0.0 
1.00585 -0.0449904 0.0 
1.00717 0.000949057 0.0 
0.812791 0.0141052 0.0 
0.981063 0.00232818 0.0 
1.00504 -0.00246985 0.0 
1.00755 0.000378107 0.0 
0.998895 0.00447596 0.0 
1.0036 0.00190568 0.0 
1.10635 0.0960978 0.0 
1.00173 -0.000504841 0.0 
0.999795 -0.000810953 0.0 
1.00834 0.00133338 0.0 
0.723179 -0.0308752 0.0 
1.0059 -7.44121e-05 0.0 
1.00468 -0.00282921 0.0 
0.00319482 -0.000759067 0.0 
1.00755 0.000996434 0.0 
1.00051 -0.00203006 0.0 
0.0394642 0.00142112 0.0 
0.0141255 -0.0024556 0.0 
0.941851 0.267873 0.0 
0.0491562 -0.000925551 0.0 
0.294053 0.135224 0.0 
0.0492436 0.00135231 0.0 
0.882292 0.242398 0.0 
0.0329397 -0.00348474 0.0 
1 -0.000951447 0.0 
1.12552 0.0849885 0.0 
1.00634 -0.000538808 0.0 
1.00578 0.00157656 0.0 
0.00680244 -0.000400313 0.0 
5.01776e-168 9.8245e-170 0.0 
1.0059 -0.00107956 0.0 
0.955509 0.0281411 0.0 
1.01349 -0.000106959 0.0 
1.00738 -0.000830206 0.0 
1.00621 0.00110034 0.0 
1.00656 -0.000826541 0.0 
1.00557 0.000311641 0.0 
0.108342 -0.0153685 0.0 
1 0 0.0 
1.04 -0.00268506 0.0 
0.980581 0.140053 0.0 
1.00553 0.000520314 0.0 
1.00478 -0.00246794 0.0 
0.0469135 -0.00259891 0.0 
1.00001 -0.000260109 0.0 
0.49356 -0.0224517 0.0 
0.8615 0.031325 0.0 
0.167438 0.0508351 0.0 
1.0076 0.000423676 0.0 
1.00875 0.000142379 0.0 
0.406149 -0.0978641 0.0 
1.00607 0.0014607 0.0 
0.0271468 0.000210865 0.0 
1.00213 -0.00389078 0.0 
0.705847 0.0132409 0.0 
1.00696 0.000762017 0.0 
0.402061 0.00499811 0.0 
1.00592 0.00106907 0.0 
0.431908 0.00797564 0.0 
0 0 0.0 
0.992129 -0.00507142 0.0 
1.00646 -0.0026561 0.0 
1.00587 -2.15726e-05 0.0 
1.00318 -0.00271827 0.0 
1.00582 -0.000144548 0.0 
1.00049 -0.00254928 0.0 
1.00324 -0.00209542 0.0 
0.181692 0.0003734 0.0 
0.9976 0.00165798 0.0 
0 0 0.0 
1.0035 0.00165078 0.0 
1.00358 -0.00211984 0.0 
0.388655 0.00544703 0.0 
1.00415 -0.000294927 0.0 
0.0609369 -0.0131951 0.0 
1.01332 0.00363167 0.0 
0.0425435 0.0105815 0.0 
1.00219 -0.00137598 0.0 
0.0031408 -0.000596256 0.0 
0.89336 0.0140405 0.0 
1.00566 -0.000262923 0.0 
1.00008 -0.00069149 0.0 
1.04081 0.0239892 0.0 
1.00385 -0.000444613 0.0 
0.927546 -0.164203 0.0 
1.00128 -0.00668864 0.0 
0.816418 0.126904 0.0 
0 0 0.0 
0.274257 0.00481528 0.0 
0.56198 -0.0357074 0.0 
0.417454 0.00196367 0.0 
1.00443 -0.00302027 0.0 
1.00481 -0.00453418 0.0 
0.433876 -0.00119017 0.0 
1.00795 -0.000197195 0.0 
0.0459959 0.00237165 0.0 
0.00882196 -0.00113101 0.0 
1.00591 -0.000396103 0.0 
0.501667 -0.012804 0.0 
1.00414 -0.00251832 0.0 
1.00517 -0.00156296 0.0 
1.00086 0.0168761 0.0 
0.982498 0.00382856 0.0 
1.01243 0.026145 0.0 
1.00148 -0.0018223 0.0 
1.00668 -0.000767513 0.0 
0.000350744 3.30597e-05 0.0 
1.0109 -0.000580624 0.0 
0 0 0.0 
0.333846 -0.00160776 0.0 
0.353921 -0.00178804 0.0 
1.00533 0.000286735 0.0 
0.0364343 -0.00715519 0.0 
1.00682 0.000173667 0.0 
0.787941 0.141127 0.0 
0.0204396 -0.00171347 0.0 
1.00587 -0.000610034 0.0 
1.00601 0.000376224 0.0 
0.0868908 0.00611311 0.0 
1.00728 0.000276805 0.0 
1.00007 -0.000222911 0.0 
0.346562 0.000980372 0.0 
1.46204e-47 -1.06771e-48 0.0 
0.300894 0.00831571 0.0 
0.794485 -0.00127943 0.0 
0.999832 -0.000285371 0.0 
0.997672 0.00434621 0.0 
0.992655 -0.00217494 0.0 
1.00001 -0.000133314 0.0 
0 0 0.0 
0.912882 -0.0162223 0.0 
6.51001e-106 -1.7458e-106 0.0 
1.00611 -0.000471409 0.0 
1.00322 0.00220281 0.0 
0.997489 0.0123352 0.0 
1.05719 0.0951247 0.0 
0.88679 -0.0210707 0.0 
0.99988 0.000976642 0.0 
0.835654 -0.0515272 0.0 
1 -0.000254468 0.0 
0.322918 -0.234595 0.0 
0.389993 0.0864352 0.0 
0 0 0.0 
0.0139846 0.000927989 0.0 
1.00243 0.00981001 0.0 
0.00145091 -0.000264603 0.0 
1.00772 -0.00211631 0.0 
0 0 0.0 
0.0110191 0.0015132 0.0 
0.300515 0.126399 0.0 
0.000307504 -3.16496e-05 0.0 
0 0 0.0 
0.263115 0.187742 0.0 
0.402539 0.0314896 0.0 
0.236052 0.00417659 0.0 
1.00254 -0.00392723 0.0 
0.482844 0.0678176 0.0 
0.0505583 0.0011602 0.0 
0.0128971 0.00037556 0.0 
0.992879 0.00250123 0.0 
0.885835 -0.0548313 0.0 
0.0151767 -0.028031 0.0 
1.00477 0.000374012 0.0 
1.00588 3.48372e-05 0.0 
0.9111 -0.0562956 0.0 
1.0031 0.00135369 0.0 
1.00518 0.00144577 0.0 
0.914718 -0.373086 0.0 
1.00524 0.00010819 0.0 
1.00188 -0.00357011 0.0 
1.00815 0.00200639 0.0 
0.0258937 0.00125513 0.0 
1.00135 -0.000735881 0.0 
1.00478 0.0019209 0.0 
0.0138185 0.0007853 0.0 
1.00234 -0.000226149 0.0 
0.970976 -0.0376554 0.0 
1.00711 0.000919995 0.0 
1.00369 -0.000558925 0.0 
0.999762 0.0018522 0.0 
0.999997 -0.000438704 0.0 
1.00418 0.000105041 0.0 
0.0177236 0.000776492 0.0 
1.00552 0 0.0 
0.883872 -0.0207077 0.0 
1.00426 -0.00119042 0.0 
1.00261 -0.00259812 0.0 
1.00399 0.00186125 0.0 
1.00594 -0.00125577 0.0 
0.0370635 -0.00396562 0.0 
1.11683 0.0439549 0.0 
1.00684 0.000331903 0.0 
0.971257 0.00210848 0.0 
1.00299 -0.000562047 0.0 
0.355896 0.0566366 0.0 
1.00676 -0.00111978 0.0 
0.698761 0.00435043 0.0 
0 0 0.0 
0.939224 0.0504275 0.0 
1.00013 -0.000258852 0.0 
1.01162 -0.0134813 0.0 
0.978959 -0.0042467 0.0 
0.999989 0.000294527 0.0 
0.0394966 0.00038835 0.0 
1.00332 0 0.0 
1.00547 0.000264072 0.0 
0.914744 0.0302403 0.0 
1.00582 4.51341e-05 0.0 
0.656588 0.0110426 0.0 
0.612288 -0.431348 0.0 
1.00587 -0.000535657 0.0 
0.080969 0.0550035 0.0 
0.620782 0.0268887 0.0 
1.00124 -0.00225974 0.0 
0.395812 -0.00963296 0.0 
0.0471274 -0.0080124 0.0 
0.791092 0.00187743 0.0 
0.886355 0.0155163 0.0 
1.0071 -0.000589682 0.0 
1.0038 -0.00172682 0.0 
0.97428 -0.0229534 0.0 
0.996537 0.00432131 0.0 
1.0022 -0.00066597 0.0 
0.0062765 -0.00130924 0.0 
0.441058 -0.0162193 0.0 
1.00097 -0.000851244 0.0 
1.00012 -0.000685675 0.0 
0.939863 -0.283491 0.0 
0.999478 0.000173825 0.0 
1.01005 -0.00184614 0.0 
0.157259 0.00864519 0.0 
1.00424 -0.00393569 0.0 
1.00464 -0.00346994 0.0 
1.00358 0.00443706 0.0 
0.999924 1.01282e-05 0.0 