<VTKFile type="UnstructuredGrid" version="0.1" byte_order="LittleEndian">
  <UnstructuredGrid>
    <Piece NumberOfPoints="13625" NumberOfCells="27061">
      <Points>
        <DataArray type = "Float64" NumberOfComponents="3" format="ascii">
0 0 0.0 
14 0 0.0 
14 8 0.0 
0 8 0.0 
4.09466 4.03941 0.0 
4.18812 3.97951 0.0 
4.14551 3.98607 0.0 
0.382322 2.91093 0.0 
4.49863 3.99743 0.0 
4.00011 4.02449 0.0 
7.97633 2.05223 0.0 
4.07057 3.9639 0.0 
4.53824 7.43039 0.0 
4.45306 3.99727 0.0 
3.98741 4.04054 0.0 
3.98768 4.02653 0.0 
4.00498 4.00961 0.0 
4.10988 3.98398 0.0 
1.03284 2.15008 0.0 
4.57278 4.01593 0.0 
0 5.96411 0.0 
4.47538 4.03375 0.0 
4.67405 4.10923 0.0 
4.1789 4.0308 0.0 
4.80484 4.03022 0.0 
4.61584 4.00791 0.0 
3.99732 3.99732 0.0 
12.1265 0 0.0 
4.06762 3.97376 0.0 
8.09302 4.14428 0.0 
5.18322 3.763 0.0 
4.01703 7.79668 0.0 
4.13489 4.05432 0.0 
11.5249 3.99498 0.0 
4.68705 4.01621 0.0 
4.43304 4.48128 0.0 
4.55638 3.9994 0.0 
7.7278 7.63087 0.0 
0 3.36284 0.0 
4.93697 3.93496 0.0 
4.44945 3.99726 0.0 
4.24264 3.99044 0.0 
4.51121 4.02141 0.0 
10.1734 4.4195 0.0 
4.0273 4.01367 0.0 
4.2321 4.07437 0.0 
3.98469 3.78203 0.0 
4.62342 4.01415 0.0 
4.32637 4.10272 0.0 
5.17517 4.1161 0.0 
4.46241 4.0213 0.0 
3.63166 3.8656 0.0 
5.45662 5.22808 0.0 
4.12607 4.05951 0.0 
4.35427 4.03502 0.0 
4.2483 4.03635 0.0 
4.0955 3.94899 0.0 
4.03444 4.04627 0.0 
4.00163 4.02959 0.0 
4.02005 3.99731 0.0 
5.23503 8 0.0 
4.30375 3.97965 0.0 
10.4908 7.41058 0.0 
4.65153 4.02457 0.0 
5.35828 4.09214 0.0 
4.20997 0.181458 0.0 
4.04564 4.34824 0.0 
3.95527 4.79872 0.0 
4.06521 4.00004 0.0 
4.17451 4.00659 0.0 
4.51222 4.06033 0.0 
3.90498 4.0501 0.0 
4.05908 4.0108 0.0 
4.10206 3.96084 0.0 
4.04672 4.0202 0.0 
4.94501 3.90266 0.0 
4.60418 3.96374 0.0 
4.54772 3.97659 0.0 
3.96947 4.02134 0.0 
3.93613 4.15846 0.0 
4.53933 3.99849 0.0 
3.96297 3.96024 0.0 
4.21254 3.97074 0.0 
4.15932 4.03394 0.0 
4.3499 4.01704 0.0 
4.11692 3.94964 0.0 
5.36227 4.11438 0.0 
3.95785 3.95439 0.0 
4.09052 3.99336 0.0 
4.02972 4.04518 0.0 
4.8618 5.24933 0.0 
3.97141 4.03046 0.0 
5.52072 4.01048 0.0 
3.97561 4.03322 0.0 
3.97816 4.02179 0.0 
4.04633 4.03304 0.0 
3.96767 4.02507 0.0 
4.53971 3.97638 0.0 
4.2532 4.04441 0.0 
4.32046 1.78584 0.0 
4.54225 3.97864 0.0 
4.21817 3.989 0.0 
5.25232 4.08081 0.0 
4.54991 3.98013 0.0 
4.05958 4.04239 0.0 
3.90674 3.97638 0.0 
4.73521 7.52615 0.0 
4.35427 4.03769 0.0 
4.15359 3.98719 0.0 
5.2844 3.91484 0.0 
0.199854 7.79205 0.0 
4.51322 3.98638 0.0 
4.06171 3.97809 0.0 
3.9691 4.17244 0.0 
4.11581 4.05249 0.0 
4.51893 4.03106 0.0 
7.3027 3.36474 0.0 
4.27124 3.99059 0.0 
4.07371 4.03406 0.0 
0.762019 5.13086 0.0 
4.63875 4.06434 0.0 
4.47889 3.99551 0.0 
3.99474 4.00051 0.0 
4.48668 4.00238 0.0 
2.92109 4.80681 0.0 
6.37297 2.73989 0.0 
6.50541 6.65271 0.0 
4.0914 3.96216 0.0 
4.94157 3.98326 0.0 
5.20281 3.96498 0.0 
4.29389 4.0432 0.0 
4.23318 4.04331 0.0 
4.65935 4.04515 0.0 
12.6474 3.41509 0.0 
4.05312 3.99197 0.0 
13.7435 8 0.0 
4.11702 4.02719 0.0 
6.67367 0 0.0 
4.00932 4.01975 0.0 
6.82471 4.26136 0.0 
4.20354 4.03712 0.0 
6.40969 2.27914 0.0 
4.42026 4.02672 0.0 
4.32465 3.99216 0.0 
4.37551 4.03925 0.0 
4.51779 3.98491 0.0 
4.79265 3.99229 0.0 
3.89408 4.12152 0.0 
6.22735 7.50315 0.0 
12.0185 5.47289 0.0 
4.07492 4.03509 0.0 
4.49088 3.99716 0.0 
13.4868 6.98366 0.0 
8.95603 7.57132 0.0 
4.68458 4.02212 0.0 
4.22222 4.09636 0.0 
3.98122 4.01031 0.0 
4.33711 3.9932 0.0 
1.60222 4.99327 0.0 
5.81064 5.0016 0.0 
4.52576 4.00794 0.0 
4.38107 3.99367 0.0 
4.50378 4.01172 0.0 
6.26265 7.14539 0.0 
4.54778 4.01674 0.0 
4.08927 3.9549 0.0 
10.4928 5.29986 0.0 
4.19586 4.09386 0.0 
4.70958 7.08222 0.0 
4.72674 4.01395 0.0 
4.09428 3.96323 0.0 
5.29214 4.05789 0.0 
4.00988 3.97037 0.0 
4.58459 4.50032 0.0 
4.18332 3.96996 0.0 
4.10906 4.03807 0.0 
4.26449 3.98943 0.0 
4.1403 4.03691 0.0 
12.0372 1.49526 0.0 
2.61514 0.506135 0.0 
4.47299 4.0082 0.0 
10.4619 3.53679 0.0 
4.88569 3.98105 0.0 
5.11537 3.91723 0.0 
3.59976 3.7225 0.0 
13.8261 5.94601 0.0 
6.38052 3.13775 0.0 
5.9291 5.15993 0.0 
4.90839 4.00372 0.0 
4.52666 4.01385 0.0 
9.4176 1.73395 0.0 
4.20327 3.97947 0.0 
5.24537 4.1668 0.0 
4.30783 4.05952 0.0 
4.46368 4.04155 0.0 
4.71924 4.00853 0.0 
13.0485 3.93506 0.0 
8.35832 2.9685 0.0 
13.4699 7.45697 0.0 
5.01113 4.1034 0.0 
4.01229 3.97705 0.0 
4.06076 3.97364 0.0 
7.58471 5.24477 0.0 
4.00964 3.98933 0.0 
4.09808 4.03387 0.0 
0.384822 4.35157 0.0 
4.00577 3.97873 0.0 
9.00321 4.86505 0.0 
4.22553 4.07149 0.0 
4.09716 3.98531 0.0 
4.31416 3.99361 0.0 
7.62224 2.88267 0.0 
7.22419 0.703495 0.0 
4.52947 3.99713 0.0 
4.62528 3.9827 0.0 
4.05099 4.00074 0.0 
4.31515 3.99154 0.0 
6.49425 0.938237 0.0 
4.05731 4.02647 0.0 
5.8599 3.0813 0.0 
4.00813 4.01182 0.0 
4.06999 4.08979 0.0 
4.98619 3.93198 0.0 
4.55037 4.00822 0.0 
4.51334 4.0121 0.0 
4.6103 3.91602 0.0 
3.10914 5.59567 0.0 
1.06432 1.49826 0.0 
4.11575 4.03408 0.0 
3.31161 1.01031 0.0 
4.20274 4.07949 0.0 
10.2824 1.17531 0.0 
12.5015 1.14918 0.0 
4.09797 3.95385 0.0 
4.23052 4.09368 0.0 
4.20868 4.08388 0.0 
11.1865 7.25481 0.0 
4.06437 4.05592 0.0 
4.05396 4.05241 0.0 
4.21025 4.03415 0.0 
4.20766 3.97838 0.0 
2.13112 6.6549 0.0 
4.11016 3.98526 0.0 
1.21542 8 0.0 
3.98799 3.95955 0.0 
4.60221 3.95456 0.0 
11.0143 2.68972 0.0 
8.82235 8 0.0 
4.23781 4.09881 0.0 
4.45455 2.45817 0.0 
4.43107 4.03277 0.0 
4.69512 3.9114 0.0 
4.5359 4.02649 0.0 
4.18803 3.98661 0.0 
4.53802 4.03292 0.0 
4.06329 4.04721 0.0 
4.93904 4.11785 0.0 
4.18805 3.96826 0.0 
13.611 1.35207 0.0 
4.00773 4.00001 0.0 
4.00241 3.93804 0.0 
0.417479 6.31883 0.0 
9.9721 3.6087 0.0 
4.4607 4.02022 0.0 
4.05055 3.98447 0.0 
4.75099 4.81123 0.0 
3.98977 4.04663 0.0 
3.99153 4.04254 0.0 
4.57553 4.01147 0.0 
8.48287 5.04599 0.0 
5.25032 1.89548 0.0 
4.45444 3.99769 0.0 
3.97296 4.00674 0.0 
11.3714 7.19716 0.0 
9.192 5.81999 0.0 
3.84724 3.99971 0.0 
3.53429 0 0.0 
4.67134 3.89044 0.0 
4.08953 4.02996 0.0 
10.9631 4.11322 0.0 
2.30378 3.03595 0.0 
4.14091 4.04918 0.0 
9.65837 4.25696 0.0 
7.40997 8 0.0 
4.02321 3.97317 0.0 
2.86414 6.59491 0.0 
7.2305 2.8051 0.0 
4.03302 4.01898 0.0 
3.10089 2.25184 0.0 
1.21408 1.2833 0.0 
4.76297 3.98343 0.0 
6.78993 2.13526 0.0 
3.88467 3.53301 0.0 
0.846754 0.565038 0.0 
4.1955 3.98808 0.0 
4.57455 4.08212 0.0 
11.5617 2.86372 0.0 
4.00414 3.99309 0.0 
7.59973 7.22298 0.0 
12.6277 1.80732 0.0 
14 4.58149 0.0 
5.85073 0.410811 0.0 
13.0902 7.46595 0.0 
1.48233 7.50025 0.0 
4.02912 3.96643 0.0 
4.21358 4.04577 0.0 
4.96928 3.97464 0.0 
4.56283 3.99857 0.0 
4.3099 3.9925 0.0 
4.51225 4.03393 0.0 
3.96066 4.00697 0.0 
4.01425 3.98947 0.0 
4.96395 4.01931 0.0 
13.1661 5.68046 0.0 
13.7895 0 0.0 
4.10795 4.02897 0.0 
4.77971 4.48626 0.0 
11.4357 2.10385 0.0 
4.03692 4.02379 0.0 
4.47091 4.06223 0.0 
4.00791 4.0033 0.0 
4.0088 3.9805 0.0 
9.75515 2.36072 0.0 
3.73135 5.50506 0.0 
4.22437 4.04428 0.0 
4.02947 3.97325 0.0 
4.84915 4.03246 0.0 
4.6454 3.91884 0.0 
4.01129 4.00596 0.0 
3.69149 4.54391 0.0 
13.1818 2.98063 0.0 
4.34238 4.03517 0.0 
4.01003 3.99134 0.0 
4.01755 3.97046 0.0 
4.52386 4.04096 0.0 
3.9183 4.01934 0.0 
4.19209 4.05548 0.0 
6.42419 4.18044 0.0 
6.98728 5.60342 0.0 
4.05373 4.0206 0.0 
4.0593 4.0207 0.0 
10.9215 3.71715 0.0 
4.2757 3.95854 0.0 
4.11868 3.97589 0.0 
4.15516 3.94365 0.0 
4.62068 4.09144 0.0 
4.01683 3.96357 0.0 
8.32777 8 0.0 
5.0541 3.94573 0.0 
3.23165 3.32205 0.0 
4.06062 4.07843 0.0 
3.92896 4.29299 0.0 
5.06461 4.08435 0.0 
4.00437 3.9841 0.0 
4.55145 4.028 0.0 
4.0134 3.97877 0.0 
3.03193 6.72582 0.0 
9.69483 7.24214 0.0 
4.01079 3.9893 0.0 
6.52781 1.51786 0.0 
4.36156 4.08272 0.0 
8.91842 0.967714 0.0 
9.91461 3.85358 0.0 
2.49698 3.5985 0.0 
4.20001 4.03326 0.0 
4.03566 4.02365 0.0 
4.21639 4.03358 0.0 
3.58179 4.19849 0.0 
13.1592 5.25121 0.0 
11.5792 7.84461 0.0 
0.551344 1.2516 0.0 
4.02575 3.96118 0.0 
5.21689 3.31425 0.0 
6.49849 5.21743 0.0 
4.70512 4.01377 0.0 
3.93277 3.96019 0.0 
4.55169 4.00359 0.0 
4.84809 6.69312 0.0 
4.34924 4.71252 0.0 
4.02644 4.05718 0.0 
11.8351 6.74811 0.0 
4.615 3.93962 0.0 
4.1127 3.96242 0.0 
0.161642 7.54 0.0 
4.15116 3.93854 0.0 
4.13176 4.07898 0.0 
10.2186 2.28825 0.0 
12.9422 5.39238 0.0 
10.6153 7.62373 0.0 
4.85957 4.01386 0.0 
6.98692 2.68678 0.0 
4.00279 3.99128 0.0 
4.05385 4.00986 0.0 
14 1.00091 0.0 
2.46918 6.85642 0.0 
4.38669 4.07987 0.0 
6.32476 7.00417 0.0 
12.5996 5.63737 0.0 
4.64409 4.00438 0.0 
3.81904 4.22335 0.0 
4.90953 3.97583 0.0 
0.348252 3.38746 0.0 
4.63883 4.00936 0.0 
3.45177 4.08827 0.0 
4.1397 3.98727 0.0 
6.64238 0.26606 0.0 
9.70352 1.23095 0.0 
4.48829 4.04174 0.0 
4.36274 4.03664 0.0 
3.96806 4.01296 0.0 
11.0968 5.75296 0.0 
2.6672 0 0.0 
4.31722 3.99339 0.0 
4.22491 3.96395 0.0 
4.19635 4.04727 0.0 
14 3.84943 0.0 
4.5467 4.03146 0.0 
12.1577 3.04216 0.0 
4.21339 4.02989 0.0 
4.53595 4.04072 0.0 
7.20657 5.05296 0.0 
3.05391 4.40989 0.0 
4.21578 3.97354 0.0 
4.17574 4.04789 0.0 
5.89797 4.00201 0.0 
4.53323 4.0151 0.0 
3.76694 3.80104 0.0 
0.198711 3.79297 0.0 
4.72583 0.194576 0.0 
3.95595 4.06684 0.0 
4.09065 3.95069 0.0 
5.30927 0.171783 0.0 
4.2904 3.92587 0.0 
3.77134 4.0081 0.0 
4.30033 6.55304 0.0 
4.73668 3.89169 0.0 
4.04877 3.98924 0.0 
3.96886 4.00175 0.0 
4.64006 3.99672 0.0 
4.00323 4.0083 0.0 
13.6945 7.80328 0.0 
10.0323 4.54406 0.0 
0.195775 6.68763 0.0 
4.82507 4.1106 0.0 
4.43883 4.02398 0.0 
4.023 3.98731 0.0 
0.347962 1.57688 0.0 
11.2286 4.89195 0.0 
3.8433 4.30642 0.0 
11.8702 0.212102 0.0 
7.78364 0 0.0 
6.32437 6.34013 0.0 
5.0604 3.97687 0.0 
5.62592 4.80931 0.0 
4.7383 3.87602 0.0 
4.1283 4.05439 0.0 
7.42831 2.99586 0.0 
1.64832 6.43608 0.0 
13.7604 0.5867 0.0 
6.21404 4.34123 0.0 
4.36442 4.03431 0.0 
4.48677 3.99573 0.0 
4.25841 3.96952 0.0 
4.03014 4.02376 0.0 
4.15096 4.79281 0.0 
4.0104 4.03331 0.0 
3.8467 3.90466 0.0 
4.12292 4.03988 0.0 
14 3.14675 0.0 
3.92693 3.99777 0.0 
3.9079 2.35452 0.0 
11.8107 0.651755 0.0 
4.29641 3.9844 0.0 
4.19061 4.05031 0.0 
3.07994 3.5028 0.0 
[...]
<PointData>
  <DataArray type = "Float64" Name="Vitesse" NumberOfComponents="3" format="ascii">
1 0 0.0 
1.00193 0 0.0 
1.00007 0 0.0 
1 0 0.0 
0.137105 0.0206023 0.0 
0.196046 0.00384079 0.0 
0.0253647 0.00221185 0.0 
0.999969 -0.000135539 0.0 
0.0164246 0.00099263 0.0 
0.66034 0.310977 0.0 
1.00649 0.000563722 0.0 
0.874252 -0.0943543 0.0 
1.00521 0.000709598 0.0 
0.0004024 4.34053e-05 0.0 
0.774451 0.197506 0.0 
0.682687 0.189216 0.0 
0.069606 0.0583937 0.0 
0.0613112 0.000500999 0.0 
0.999983 -0.000614655 0.0 
0.0735989 -0.023969 0.0 
1 0 0.0 
0.133281 -0.0159369 0.0 
0.959452 -0.0453598 0.0 
0 0 0.0 
0.371741 -0.0172897 0.0 
0.117942 -0.00181796 0.0 
0.278307 -0.329794 0.0 
1.00347 0 0.0 
0.54339 -0.0432852 0.0 
0.940598 -0.00337469 0.0 
1.00979 0.00665132 0.0 
1.00428 0.000313055 0.0 
0.538996 0.0596787 0.0 
0.952945 -0.0044893 0.0 
0.210716 -0.00844423 0.0 
1.03838 0.00968766 0.0 
1.43712e-05 -3.03937e-07 0.0 
1.00541 -0.000195444 0.0 
1 0 0.0 
0.804352 0.0187144 0.0 
0.00175762 4.63441e-05 0.0 
0.00140794 0.000133151 0.0 
0.0584593 -0.00870177 0.0 
1.00729 -0.00494453 0.0 
0 0 0.0 
0.803656 0.0259153 0.0 
0.99641 -0.064375 0.0 
0.132235 -0.009933 0.0 
1.04716 0.00393665 0.0 
0.943328 -0.0161167 0.0 
0.0122388 -0.00160269 0.0 
0.971948 -0.0110562 0.0 
1.01119 -0.00162207 0.0 
0.762289 0.104691 0.0 
0.00996053 -0.000917303 0.0 
0 0 0.0 
1.03211 -0.0971944 0.0 
0.9252 0.316083 0.0 
0.720401 0.309356 0.0 
0 0 0.0 
1.00563 0 0.0 
0.221706 0.00607232 0.0 
1.00324 -0.000654333 0.0 
0.208758 -0.0195292 0.0 
0.857531 -0.0129751 0.0 
1.00372 -0.000255978 0.0 
1.01874 0.0563992 0.0 
1.01042 0.0196469 0.0 
0 0 0.0 
0 0 0.0 
0.505959 -0.0405664 0.0 
0.884161 0.0401558 0.0 
0 0 0.0 
0.816599 -0.0534672 0.0 
0 0 0.0 
0.948387 0.0166381 0.0 
0.524436 0.0345478 0.0 
0.347629 0.0151232 0.0 
0.725693 0.067407 0.0 
0.954868 0.0860392 0.0 
0.0127138 -0.00029431 0.0 
0.859785 -0.137341 0.0 
0.391593 0.00494005 0.0 
0 0 0.0 
0 0 0.0 
0.981096 -0.06799 0.0 
0.931274 -0.012262 0.0 
0.874406 -0.124786 0.0 
0 0 0.0 
0.913159 0.323767 0.0 
1.0137 0.0017271 0.0 
0.750553 0.107064 0.0 
0.584223 -0.00193353 0.0 
0.751164 0.131388 0.0 
0.686569 0.104856 0.0 
0.433335 0.133385 0.0 
0.74417 0.0769131 0.0 
0.34618 0.0126722 0.0 
0.0428396 -0.00221887 0.0 
1.00516 -0.00305463 0.0 
0.31546 0.0121209 0.0 
0.0137508 0.000755256 0.0 
0.807779 -0.0157744 0.0 
0.298955 0.0140995 0.0 
0.691161 0.181362 0.0 
0.88246 -0.0377379 0.0 
1.00537 0.00051152 0.0 
0.0454708 -0.00479725 0.0 
2.1441e-05 -7.57873e-07 0.0 
0.886507 0.00929799 0.0 
1.00001 2.17185e-05 0.0 
0.18763 0.004746 0.0 
0.381173 -0.0275083 0.0 
0.971046 0.0982685 0.0 
0.583385 0.0844069 0.0 
0.146898 -0.0184227 0.0 
1.00756 0.000855382 0.0 
0.0150603 0.000654826 0.0 
0.0587865 0.0162782 0.0 
0.999926 0.000701746 0.0 
0.60356 -0.0472142 0.0 
0.0386306 0.00130602 0.0 
0.279699 -0.174418 0.0 
1.41719e-120 4.16905e-122 0.0 
0.997453 0.00677156 0.0 
1.00782 0.000350532 0.0 
1.00667 -0.000448199 0.0 
0.823696 -0.0633285 0.0 
0.469901 0.0104678 0.0 
0.637487 0.00940483 0.0 
0.0606407 -0.0030209 0.0 
5.67335e-06 -6.04442e-08 0.0 
0.396401 -0.0358704 0.0 
1.00546 0.00499541 0.0 
0 0 0.0 
1.00019 0 0.0 
0 0 0.0 
1.00563 0 0.0 
0.529354 0.30794 0.0 
1.00695 -0.00247409 0.0 
0 0 0.0 
1.00734 -9.51865e-06 0.0 
0.00663625 -0.000409005 0.0 
0.0206752 0.000390989 0.0 
0.092863 -0.00956351 0.0 
0.211456 0.00560022 0.0 
0.343047 0.0105146 0.0 
0.931967 0.063581 0.0 
1.00602 -4.86289e-05 0.0 
1.00042 -0.00318533 0.0 
0.104853 0.028828 0.0 
0.0176663 0.000275831 0.0 
1.00016 -0.00058675 0.0 
1.00466 -0.000306974 0.0 
0.229468 -0.0145099 0.0 
1.08841 0.0642011 0.0 
0.605072 0.0331248 0.0 
0.0100533 0.000910139 0.0 
0.999563 0.00177063 0.0 
1.00997 -0.00295936 0.0 
0.000162518 -2.53474e-05 0.0 
0.0270737 0.00244116 0.0 
5.29952e-08 -6.32335e-09 0.0 
1.00625 -0.000130131 0.0 
0.0604686 -0.0120363 0.0 
0.979493 -0.0927032 0.0 
1.00399 -0.00393631 0.0 
1.09673 0.0879073 0.0 
1.00579 0.00102783 0.0 
0.245029 -0.00590871 0.0 
0.782991 -0.0546281 0.0 
0.6919 -0.012834 0.0 
0.963913 -0.325144 0.0 
1.03319 -0.000772536 0.0 
0.422265 0.00228396 0.0 
6.90042e-124 4.56354e-125 0.0 
0.0321898 0.00144466 0.0 
0 0 0.0 
1.00369 0.00128243 0.0 
1.00143 -0.000608914 0.0 
3.50617e-291 -1.57187e-292 0.0 
1.00683 0.00310452 0.0 
0.460318 0.0137121 0.0 
0.886826 0.0120142 0.0 
0.981808 -0.0149566 0.0 
0.999512 -0.000824322 0.0 
1.00841 0.000459785 0.0 
1.00945 -0.00234408 0.0 
0.379561 0.00108892 0.0 
0.0256617 -0.00438541 0.0 
1.00562 0.000731278 0.0 
0.199565 0.0047302 0.0 
1.0034 -0.0128653 0.0 
0.406592 -0.0154341 0.0 
0.212983 -0.0220133 0.0 
0.234732 -0.000729552 0.0 
0.98746 0.00363891 0.0 
1.00702 0.00106691 0.0 
1.00028 -0.000319437 0.0 
0.910469 -0.0220671 0.0 
0.930865 -0.339014 0.0 
0.591821 -0.0566378 0.0 
1.00722 -0.00175614 0.0 
0.360961 -0.149536 0.0 
0 0 0.0 
0.99996 0.000203596 0.0 
0.895933 -0.385219 0.0 
1.00669 -0.00267961 0.0 
0.752928 0.0254852 0.0 
0.0185255 0.0016205 0.0 
4.38043e-06 3.58929e-07 0.0 
1.00717 0.00076973 0.0 
1.00582 4.21947e-05 0.0 
0.0308727 0.000747692 0.0 
0.298384 0.0272859 0.0 
0 0 0.0 
0.0258396 0.00130184 0.0 
1.00594 -0.000169118 0.0 
0 0 0.0 
1.00889 0.000590244 0.0 
0.0804621 0.045656 0.0 
1.04497 0.211536 0.0 
0.822274 0.0170696 0.0 
0.0196799 -0.00480897 0.0 
0.00709245 -0.00115318 0.0 
0.950517 0.0268062 0.0 
1.00229 0.00586493 0.0 
1.00012 -0.000552393 0.0 
0 0 0.0 
1.00243 -0.00156247 0.0 
0.951635 0.0615032 0.0 
1.00493 0.000656503 0.0 
1.0032 0.00101408 0.0 
0.969529 -0.0819076 0.0 
1.06492 0.0552106 0.0 
1.00119 0.0626702 0.0 
1.00241 -0.000863568 0.0 
0.977375 0.252436 0.0 
0.961878 0.273348 0.0 
0 0 0.0 
0.224219 0.00504774 0.0 
1.00115 0.00171349 0.0 
0.0213789 0.000389308 0.0 
1.00041 0 0.0 
0.887214 -0.218231 0.0 
0.634983 0.0340938 0.0 
1.00493 0.00189183 0.0 
1.00467 0 0.0 
1.08779 0.0540391 0.0 
1.00752 -0.00492777 0.0 
0.0777327 -0.00936435 0.0 
0.950217 0.028186 0.0 
0.120702 -0.0172402 0.0 
0.0408053 0.00147783 0.0 
0.182689 -0.0236506 0.0 
0.816434 0.211224 0.0 
0.959657 -0.0248127 0.0 
0.460138 0.00145426 0.0 
1.00212 0.00115956 0.0 
0 0 0.0 
0.965875 -0.189434 0.0 
1.00003 0.000334389 0.0 
1.00803 0.00315385 0.0 
0.00377637 -0.000177134 0.0 
0.107181 -0.0079521 0.0 
1.02105 0.000842993 0.0 
0.804714 0.205402 0.0 
0.787293 0.217366 0.0 
0.0578002 -0.0182192 0.0 
1.007 -0.00214443 0.0 
1.0069 -0.00159758 0.0 
0.000126917 1.28856e-05 0.0 
0.675342 -0.0142506 0.0 
1.00218 -0.000924897 0.0 
1.00556 -0.00190351 0.0 
0.91838 -0.00448702 0.0 
1.00271 0 0.0 
1.01011 0.0239548 0.0 
0 0 0.0 
0.945966 -0.00995678 0.0 
0.998493 -0.00208417 0.0 
0.305037 0.0280266 0.0 
0.994808 -0.00440313 0.0 
1.00549 0 0.0 
0.950627 -0.258911 0.0 
1.00239 0.00249992 0.0 
1.00729 0.000613085 0.0 
0 0 0.0 
1.00125 -0.00404216 0.0 
1.0002 -0.000573135 0.0 
0.381928 0.0176399 0.0 
1.00701 0.000157472 0.0 
0.999267 -0.027285 0.0 
1.00013 -0.000181326 0.0 
0.014762 0.00156816 0.0 
0.788706 -0.052214 0.0 
1.00444 0.0023586 0.0 
0.253437 -0.175523 0.0 
1.00561 -0.000409744 0.0 
1.00314 0.00170664 0.0 
0.998322 -0.000600599 0.0 
1.00544 -0.000219507 0.0 
1.00052 -0.000379758 0.0 
1.00059 0.000418388 0.0 
1.02128 -0.244686 0.0 
0.0509829 -0.00121614 0.0 
0.530952 0.0130436 0.0 
0.0343908 0.0129961 0.0 
0.00742148 0.000892917 0.0 
0.169783 -0.0202071 0.0 
0.747434 -0.0127912 0.0 
0.154253 -0.0292853 0.0 
0.420862 -0.00713289 0.0 
0.99953 -0.00148131 0.0 
1.00209 0 0.0 
0 0 0.0 
1.02578 -0.00788666 0.0 
1.00438 0.00163947 0.0 
0 0 0.0 
0.512362 -0.0371789 0.0 
0 0 0.0 
0.878497 -0.367524 0.0 
1.00572 0.00126638 0.0 
1.00595 0.00770936 0.0 
0.0186723 0.00013863 0.0 
0.899564 -0.208178 0.0 
0.412835 -0.0165644 0.0 
0.927683 0.0291262 0.0 
0 0 0.0 
0.996994 0.0236067 0.0 
1.00235 0.00355928 0.0 
0.000119782 -1.78057e-05 0.0 
0.0732875 -0.028985 0.0 
0.995069 -0.302268 0.0 
0.259039 -0.0280399 0.0 
0.856111 0.0116302 0.0 
0.377423 0.0153593 0.0 
0.992838 -0.00389661 0.0 
1.00749 -0.0014754 0.0 
0 0 0.0 
0 0 0.0 
0.987744 0.000688257 0.0 
0.61046 0.00344938 0.0 
0.313339 -0.00198297 0.0 
0.979429 -0.0465615 0.0 
0.86672 -0.0505107 0.0 
1.00646 -0.280735 0.0 
1.00499 0 0.0 
0.737967 0.0149614 0.0 
0.995352 -0.00738353 0.0 
1.03173 0.235701 0.0 
0.992715 0.0587531 0.0 
0.820569 -0.0214658 0.0 
0.805193 -0.413601 0.0 
0.147874 -0.0237129 0.0 
0.892669 -0.319044 0.0 
1.00275 0.00233079 0.0 
1.0041 -0.000704342 0.0 
0.312635 -0.112714 0.0 
1.00643 -0.000158581 0.0 
0.82201 -0.0217267 0.0 
1.00551 0.000298883 0.0 
0.94066 0.00444937 0.0 
0.996428 -0.00110666 0.0 
0 0 0.0 
-7.09253e-245 -1.72428e-245 0.0 
0 0 0.0 
0.977565 0.0158298 0.0 
0.998872 -0.00168474 0.0 
1.00197 -0.000171302 0.0 
1.00004 -0.000234059 0.0 
1.03659 -0.252804 0.0 
1.01197 0.00132377 0.0 
1.0082 -0.00201784 0.0 
0.223822 -0.0057358 0.0 
0.875649 -0.0771154 0.0 
0.00300261 -0.000654975 0.0 
1.00664 0.00130183 0.0 
1.02502 0.0134213 0.0 
0.934232 0.285886 0.0 
1.00155 -0.00140098 0.0 
0.787996 0.0329425 0.0 
0.740296 -0.0368832 0.0 
1 3.80307e-05 0.0 
1.02914 -0.0559647 0.0 
1.07122 0.153841 0.0 
1.00534 0.00137168 0.0 
0.999182 -0.00193028 0.0 
1.00308 -0.000418807 0.0 
0.34832 -0.00495612 0.0 
1.00739 0.00048376 0.0 
0.499998 -0.352594 0.0 
0 0 0.0 
1.00184 0.000780699 0.0 
1.0017 0.00170643 0.0 
0.771538 -0.0282522 0.0 
1.00638 -0.000200655 0.0 
0.999851 -0.00218564 0.0 
0.162374 0.00411823 0.0 
0.970483 0.0433631 0.0 
0.503828 0.0140211 0.0 
0.999969 -3.90162e-05 0.0 
0.148212 -0.00220849 0.0 
0.980836 0.00551095 0.0 
9.1992e-41 1.29925e-41 0.0 
1.00567 -4.04007e-05 0.0 
1.00527 0.000548407 0.0 
0.23712 -0.0246624 0.0 
0.0424112 -0.00390463 0.0 
0.713632 0.0218758 0.0 
1.00256 -0.00313376 0.0 
1.00152 0 0.0 
8.93116e-05 7.96834e-06 0.0 
0.532464 0.00268069 0.0 
0.104297 0.0016395 0.0 
0.996757 0.00292994 0.0 
0.175885 -0.0248459 0.0 
1.00384 0.00332376 0.0 
-2.28509e-287 3.4814e-289 0.0 
0.266108 -0.0298054 0.0 
1.00751 -0.00196076 0.0 
0.993609 0.00668482 0.0 
0.329581 0.00569721 0.0 
0.15084 0.0068954 0.0 
0.643584 -0.000472633 0.0 
0.0376777 -0.00633419 0.0 
0.970526 -0.0278156 0.0 
0.999992 2.90827e-05 0.0 
1.00441 -0.000234425 0.0 
0.86387 0.110306 0.0 
1.02711 -0.101156 0.0 
1.00501 -0.00014866 0.0 
0.994662 -0.0164033 0.0 
0.944599 0.00102599 0.0 
1.00607 0.00235716 0.0 
0.996178 0.0233606 0.0 
0 0 0.0 
0.706753 -0.0459386 0.0 
0.190634 0.0129859 0.0 
0.0783749 0.0811948 0.0 
1.0002 -9.77838e-05 0.0 
1.00718 -0.00541587 0.0 
1 0.000128617 0.0 
0.944984 -0.0335898 0.0 
0.00629508 -0.0013004 0.0 
0.153555 -0.0395928 0.0 
1.00001 -0.000169233 0.0 
1.00166 -0.00567771 0.0 
0.984956 0.0443726 0.0 
1.0037 0.00017004 0.0 
1.00559 0 0.0 
1.00718 -0.000565414 0.0 
0.544006 0.0100392 0.0 
1.011 -0.00400875 0.0 
1.01529 0.0208308 0.0 
0.578209 0.0714396 0.0 
1.00738 0.000784707 0.0 
1.00057 0.00144061 0.0 
1.00209 0.00047372 0.0 
1.00788 -0.00374859 0.0 
0.0136404 -0.00227712 0.0 
0.0377581 0.00124845 0.0 
0.407209 0.00582629 0.0 
0.182409 0.0616864 0.0 
1.01708 0.0173248 0.0 
0.784981 0.342716 0.0 
0.942461 -0.0379371 0.0 
-1.29441e-82 -2.73053e-83 0.0 
1.00041 0.0029907 0.0 
0.84468 -0.0237203 0.0 
1.00449 -0.0056486 0.0 
1.00377 0.000523484 0.0 
0.135599 0.0043858 0.0 
0.209888 0.00765027 0.0 
0.993585 -0.00480983 0.0 
1.00638 0.00224474 0.0 
1.00652 0.000792396 0.0 
0 0 0.0 
5.38273e-07 9.38966e-08 0.0 
1.00568 2.37187e-06 0.0 
1.00455 0.000251597 0.0 
1.01898 0.220638 0.0 
1.00654 -0.000750001 0.0 
2.08655e-05 1.66424e-06 0.0 
0.990505 -0.00343609 0.0 
1.00663 0.000996431 0.0 
1.00695 0.00182729 0.0 
1.00006 -0.000443159 0.0 
1.0057 -1.06148e-06 0.0 
1.00832 0.000937201 0.0 
0.251049 -0.048089 0.0 
1.00443 -0.00130569 0.0 
0.993443 -0.00234684 0.0 
0.00762295 -0.00145652 0.0 
0.0645549 -0.00211457 0.0 
1.00635 0.00177331 0.0 
0.283297 0.170235 0.0 
1.00717 -0.00135489 0.0 
1.0013 0.00539923 0.0 
0.00261511 -0.000505034 0.0 
0.803038 0.319079 0.0 
0.0261903 0.0013067 0.0 
1.00365 0.00322613 0.0 
0.227849 0.0227774 0.0 
0.0226366 -0.000219368 0.0 
1.00818 0.00491715 0.0 
1.00078 0.00125509 0.0 
1.00039 -0.000350361 0.0 
0.784196 -0.011221 0.0 
0.903322 -0.00406049 0.0 
0.0203284 -0.00287073 0.0 
0.016073 0.00109643 0.0 
0.998421 -0.00292348 0.0 
0.69268 0.000971935 0.0 
1.00011 0.000801223 0.0 
1.00737 -0.00175909 0.0 
0.99987 -0.00087001 0.0 
1.00045 -0.00130777 0.0 
0.00775471 0.000519362 0.0 
1.00094 0.205896 0.0 
1.00526 -0.000732833 0.0 
0.962334 -0.283732 0.0 
0.919909 -0.0251368 0.0 
0.924867 -0.305651 0.0 
0.997317 -0.000788767 0.0 
0.999358 0.000719155 0.0 
1.00658 0.000595894 0.0 
0 0 0.0 
1.00002 -0.000183425 0.0 
0.00385876 -0.000791558 0.0 
1.00911 -0.00346165 0.0 
1.00504 0.00220899 0.0 
1.0022 0.00077628 0.0 
1.05976e-05 1.14383e-07 0.0 
0.0995525 0.00266449 0.0 
8.34235e-43 4.3848e-44 0.0 
1.00024 0.000356151 0.0 
0.453027 -0.307371 0.0 
1.12212 0.0818977 0.0 
1.00423 -0.00046243 0.0 
1.01013 0.00414849 0.0 
0.892462 -0.0517849 0.0 
1.01819 0.0100331 0.0 
0.710761 -0.00590463 0.0 
0.635966 0.0144571 0.0 
0.998639 -0.00230513 0.0 
0.705171 0.0906643 0.0 
0.130634 -0.0174991 0.0 
1.00143 0.00297609 0.0 
0.995292 -0.00163096 0.0 
0.999498 -5.59846e-05 0.0 
1.00166 0.000228564 0.0 
1.00836 -0.00517594 0.0 
0.0786321 -0.0015357 0.0 
1.00546 0.000728587 0.0 
1.00889 0.00203769 0.0 
0.23349 -0.0270195 0.0 
1.00003 0.000303882 0.0 
1.00536 0.00156136 0.0 
1.00696 -0.000552846 0.0 
1.00118 0.00594921 0.0 
1.00089 -0.000437515 0.0 
1.00818 -0.00716297 0.0 
1.00532 -0.000155899 0.0 
1.03036 0.0128242 0.0 
1.03068 -0.0258657 0.0 
1.0057 0.00180267 0.0 
0.000211907 5.41745e-06 0.0 
0.015165 -0.00271226 0.0 
0.384451 -0.0108371 0.0 
0.0665465 0.00170523 0.0 
1.00708 0.000840489 0.0 
0.300067 0.144497 0.0 
0.0814252 0.00418356 0.0 
5.78585e-118 7.91943e-119 0.0 
1.07171 0.0775177 0.0 
0 0 0.0 
0.966401 0.113817 0.0 
0.214274 0.0683311 0.0 
3.2329e-119 -8.75699e-120 0.0 
4.08022e-42 4.2758e-43 0.0 
0.332185 -0.00586623 0.0 
1.00396 0.000296563 0.0 
0.961826 -0.0447068 0.0 
0.0489579 -0.00321104 0.0 
0.81556 -0.0265893 0.0 
0.203735 0.0173707 0.0 
1.00711 0.000703413 0.0 
0.99773 -0.000904543 0.0 
1.00543 0.00103713 0.0 
0.999977 7.07147e-06 0.0 
1.00393 0.000249881 0.0 
1.00406 0.000700832 0.0 
0.285255 -0.0410753 0.0 
0.962404 -0.0565683 0.0 
0.0266953 0.0016051 0.0 
1.00807 0.00549364 0.0 
0.0149409 0.000929846 0.0 
0.256128 0.0226065 0.0 
0.869018 -0.0164447 0.0 
0.86241 0.0304776 0.0 
0.755325 0.0118397 0.0 
0.121763 0.0282721 0.0 
0.0307511 -0.0168348 0.0 
0.00872973 0.000882975 0.0 
1.00021 -0.000711963 0.0 
1.01309 -0.00565446 0.0 
1 0.000231822 0.0 
1.00588 -2.76825e-05 0.0 
0.0108992 0.000809816 0.0 
0.993002 0.00411638 0.0 
1.00646 0.000881456 0.0 
1.00743 0.000599141 0.0 
1.00595 -0.0450103 0.0 
1.00711 0.00210676 0.0 
1.00292 0 0.0 
0.246272 -0.0108453 0.0 
1.00503 -0.0024501 0.0 
1.00613 -0.00114903 0.0 
0.998897 0.00447474 0.0 
1.0021 0.00207549 0.0 
1.0087 -0.00157474 0.0 
1.00173 -0.000503105 0.0 
-5.69699e-82 1.06957e-83 0.0 
0.771315 0.0207148 0.0 
0.6959 -0.00524407 0.0 
1.00581 -9.12681e-05 0.0 
1.00467 -0.0028086 0.0 
0.366824 0.0529126 0.0 
0.999702 0.00505048 0.0 
0.999603 -0.00105056 0.0 
3.41235e-05 4.97598e-07 0.0 
0.315716 0.0442841 0.0 
1.00424 0.00235302 0.0 
0.812897 0.0140945 0.0 
0 0 0.0 
1.05845 0.225769 0.0 
0.0142148 -0.00208227 0.0 
1.00836 0.00144377 0.0 
1 -0.000949728 0.0 
0.72336 -0.0308661 0.0 
1.00929 -0.00169949 0.0 
1.00502 0.00191713 0.0 
0.64471 -0.0271191 0.0 
1.00355 -0.00396783 0.0 
1.00548 -0.00165451 0.0 
0.955596 0.0281859 0.0 
0.00985894 0.0011404 0.0 
1.00734 -0.000927332 0.0 
1.0062 0.00108068 0.0 
0.834443 0.117719 0.0 
0.993481 0.00563847 0.0 
0.977833 0.00203012 0.0 
0.960306 -0.00392607 0.0 
0.01147 -0.0019806 0.0 
1.00432 -0.00090348 0.0 
1.00079 0 0.0 
1.1256 0.0852123 0.0 
0.0892173 0.0013071 0.0 
1.00001 -0.000259709 0.0 
-2.68316e-245 -1.97281e-246 0.0 
0.882601 0.241812 0.0 
0.861599 0.0313663 0.0 
1.10663 0.0973269 0.0 
1.00761 0.000644719 0.0 
1.00874 9.13773e-05 0.0 
1.00471 0.0020698 0.0 
0.0184595 0.000382741 0.0 
0.407897 0.0267005 0.0 
1.00606 -0.000395033 0.0 
1.0031 0.0104346 0.0 
1.00661 0.001099 0.0 
0.402214 0.00501769 0.0 
1.04011 -0.00268124 0.0 
0.432016 0.00786307 0.0 
0 0 0.0 
0.995036 -0.000876683 0.0 
1.0048 -0.00479767 0.0 
1.00573 1.72639e-05 0.0 
1.00112 -0.0027065 0.0 
1.0057 -0.00017283 0.0 
0.999517 -0.00130766 0.0 
1.00154 -0.00222209 0.0 
0.181763 0.000373074 0.0 
1.00521 0.00148807 0.0 
0 0 0.0 
1.00213 0.00173785 0.0 
1.00183 -0.00240948 0.0 
0.388813 0.00547037 0.0 
1.00337 -0.000454336 0.0 
0.883519 0.0252212 0.0 
0.05964 0.00256896 0.0 
0.999796 -0.000809359 0.0 
0.123218 0.0310476 0.0 
1.00091 -0.00115659 0.0 
1.0049 -0.0021658 0.0 
0.893451 0.0140311 0.0 
0.0232328 0.000560383 0.0 
1.00008 -0.000690243 0.0 
0.999121 0.000425243 0.0 
1.00291 -0.000621773 0.0 
0.927627 -0.164096 0.0 
0.0325777 -0.00395592 0.0 
0.816483 0.126901 0.0 
-2.65267e-244 -2.91032e-245 0.0 
0.27394 0.00423539 0.0 
0.580649 -0.0485565 0.0 
0.417601 0.00197226 0.0 
1.00104 -0.00132458 0.0 
0.0514513 0.00147463 0.0 
0.434299 -0.000960628 0.0 
1.00793 -0.00025814 0.0 
1.00128 -0.00662149 0.0 
0.183666 -0.020109 0.0 
1.00577 -0.000469125 0.0 
1 0 0.0 
1.00413 -0.00250345 0.0 
0.906188 -0.0266567 0.0 
1.00087 0.0168691 0.0 
0.730327 -0.0166784 0.0 
5.75652e-07 -6.21769e-08 0.0 
1.00027 -0.00126011 0.0 
1.0066 -0.000883031 0.0 
9.45087e-290 4.23959e-290 0.0 
1.01116 -0.000917117 0.0 
1.00596 -0.000269132 0.0 
0.334004 -0.00157907 0.0 
0.354081 -0.00176099 0.0 
1.00492 0.000444375 0.0 
0.0364795 -0.00715726 0.0 
1.0067 0.000371683 0.0 
0.788011 0.141124 0.0 
1.00289 -0.00341688 0.0 
1.00583 -0.000571509 0.0 
1.0057 0.000451974 0.0 
1.00446 -0.00298235 0.0 
1.00724 0.000509309 0.0 
1.00007 -0.00022255 0.0 
0.346723 0.00100894 0.0 
0 0 0.0 
0.167678 0.0510323 0.0 
0.794523 -0.00121762 0.0 
0.999832 -0.000284443 0.0 
0.997674 0.00434527 0.0 
0.992682 -0.00376415 0.0 
1.00001 -0.000133167 0.0 
0.0821197 0.0044709 0.0 
1.00751 0.00138173 0.0 
2.53182e-47 -1.62777e-48 0.0 
0.913599 -0.016001 0.0 
1.00321 0.00219743 0.0 
6.52844e-165 -3.7067e-165 0.0 
0.0609698 -0.013178 0.0 
0.94172 0.26794 0.0 
1.00522 0.000423002 0.0 
0.835798 -0.0515541 0.0 
1 -0.00025405 0.0 
0.32304 -0.234652 0.0 
0.390112 0.0864443 0.0 
1.00233 -0.000435866 0.0 
0.705957 0.0132304 0.0 
1.00242 0.00980306 0.0 
0.406354 -0.0979406 0.0 
1.00505 0.000780593 0.0 
1.04071 0.023843 0.0 
0.0309116 -0.00473353 0.0 
0.123462 0.0731665 0.0 
0.997497 0.0123325 0.0 
0 0 0.0 
1.00588 -0.000626769 0.0 
1.05591 0.0981205 0.0 
0.236165 0.00419082 0.0 
0.56213 -0.0357166 0.0 
0.266434 -0.0109619 0.0 
1 1.1099e-290 0.0 
0.999589 -0.00679489 0.0 
0.603786 0.00209812 0.0 
0.886116 -0.0553946 0.0 
0.0151837 -0.0280216 0.0 
1.00409 0.000541028 0.0 
1.01244 0.0261355 0.0 
0 0 0.0 
0.0143225 0.000999688 0.0 
0.886905 -0.0210916 0.0 
0.914969 -0.373045 0.0 
0.0497671 0.00298537 0.0 
0.999848 -0.00259648 0.0 
0.109328 -0.0155301 0.0 
1.00646 -0.000963051 0.0 
0.997604 0.00165864 0.0 
1.00361 0.00306468 0.0 
0.501877 -0.0128072 0.0 
0.0469552 -0.00259755 0.0 
6.20331e-71 -1.90579e-71 0.0 
0.00318787 -0.000604891 0.0 
1.00267 -0.000742432 0.0 
0.999763 0.00185082 0.0 
0.99935 -0.00264478 0.0 
1.00334 0.000131808 0.0 
0.493738 -0.0224337 0.0 
1.00546 0 0.0 
0.883924 -0.0206756 0.0 
0.403953 0.0315312 0.0 
0.0193196 -0.00280267 0.0 
1.00252 0.00236458 0.0 
0.011744 0.00114085 0.0 
1.0055 -0.000312506 0.0 
1.11687 0.0438873 0.0 
1.00756 -0.00254691 0.0 
0.0507067 0.00210788 0.0 
0.999881 0.00097611 0.0 
0.981515 0.00502022 0.0 
1.00659 -0.00147355 0.0 
0.987575 0.00273227 0.0 
0.91116 -0.0562488 0.0 
1.01333 0.00360533 0.0 
1.00082 -0.00176938 0.0 
1.01176 -0.0134872 0.0 
0.991828 0.000485004 0.0 
0.0137929 0.000910014 0.0 
0 0 0.0 
1.0033 0 0.0 
1.00512 0.000375048 0.0 
0.914835 0.0302826 0.0 
1.00562 7.52677e-05 0.0 
0.656694 0.011038 0.0 
0.61244 -0.431389 0.0 
1.00571 -0.000643533 0.0 
0.186449 -0.0241647 0.0 
0.0407392 -0.00599936 0.0 
1.00124 -0.00225233 0.0 
1.0801 -0.134781 0.0 
0.0471666 -0.00801016 0.0 
1.00528 0.0018511 0.0 