<VTKFile type="UnstructuredGrid" version="0.1" byte_order="LittleEndian">
  <UnstructuredGrid>
    <Piece NumberOfPoints="13508" NumberOfCells="26827">
      <Points>
        <DataArray type = "Float64" NumberOfComponents="3" format="ascii">
0 0 0.0 
14 0 0.0 
14 8 0.0 
0 8 0.0 
0.383893 2.91152 0.0 
4.51189 3.98643 0.0 
3.84668 3.90466 0.0 
8.21186 3.9854 0.0 
4.01425 3.98947 0.0 
4.05101 4.00074 0.0 
4.90839 4.00372 0.0 
4.07057 3.9639 0.0 
4.53824 7.43039 0.0 
3.69405 4.54286 0.0 
3.98741 4.04054 0.0 
3.98768 4.02653 0.0 
4.1403 4.03691 0.0 
4.00964 3.98933 0.0 
4.74535 3.98025 0.0 
4.30249 3.97961 0.0 
4.28788 4.04173 0.0 
4.47538 4.03375 0.0 
4.67405 4.10923 0.0 
4.1789 4.0308 0.0 
4.80484 4.03022 0.0 
4.61584 4.00791 0.0 
12.1265 0 0.0 
4.04245 3.95536 0.0 
13.1817 2.98063 0.0 
1.77675 6.77593 0.0 
3.90882 3.9602 0.0 
4.13489 4.05432 0.0 
7.46235 3.44631 0.0 
4.98619 3.93198 0.0 
4.07157 4.09147 0.0 
3.31161 1.01031 0.0 
14 4.58016 0.0 
0 3.36284 0.0 
4.93697 3.93496 0.0 
11.1865 7.25481 0.0 
9.69483 7.24214 0.0 
10.1734 4.4195 0.0 
4.0273 4.01367 0.0 
4.07458 3.94321 0.0 
4.52624 3.99774 0.0 
4.62342 4.01415 0.0 
4.21339 4.02989 0.0 
5.17517 4.1161 0.0 
1.33311 1.459 0.0 
4.538 4.03291 0.0 
4.471 4.06159 0.0 
4.12607 4.05951 0.0 
4.51883 3.99789 0.0 
4.2483 4.03635 0.0 
4.0955 3.94899 0.0 
4.03444 4.04627 0.0 
4.00163 4.02959 0.0 
4.02005 3.99731 0.0 
5.23503 8 0.0 
5.16077 4.06746 0.0 
4.1901 4.04953 0.0 
13.5337 6.38239 0.0 
5.35828 4.09214 0.0 
13.2903 7.45798 0.0 
4.41867 3.99517 0.0 
4.55258 4.0032 0.0 
11.7283 4.38874 0.0 
4.35473 4.03787 0.0 
4.0775 4.02606 0.0 
3.22024 3.32351 0.0 
4.73454 4.01964 0.0 
4.15825 4.03374 0.0 
4.04672 4.0202 0.0 
4.94501 3.90266 0.0 
8.91842 0.967714 0.0 
4.54772 3.97659 0.0 
3.96947 4.02134 0.0 
4.21303 3.97045 0.0 
5.28835 3.91341 0.0 
3.96297 3.96024 0.0 
4.09803 3.98339 0.0 
7.6398 2.6807 0.0 
4.16699 3.98694 0.0 
4.11692 3.94964 0.0 
3.86564 4.12519 0.0 
3.95785 3.95439 0.0 
4.09065 3.95069 0.0 
4.02972 4.04518 0.0 
5.2927 4.05862 0.0 
3.97141 4.03046 0.0 
4.2878 3.99121 0.0 
3.97561 4.03322 0.0 
3.97816 4.02179 0.0 
4.04633 4.03304 0.0 
3.96767 4.02507 0.0 
4.53971 3.97638 0.0 
2.37857 1.61641 0.0 
13.1592 5.2511 0.0 
4.54225 3.97864 0.0 
1.1914 3.57636 0.0 
4.00773 4.00001 0.0 
4.54991 3.98013 0.0 
4.11785 4.02706 0.0 
4.73521 7.52615 0.0 
4.62546 3.9826 0.0 
4.52549 3.98021 0.0 
4.51292 3.99863 0.0 
4.30141 4.04146 0.0 
4.45224 4.01051 0.0 
12.9422 5.39236 0.0 
1.48228 7.4999 0.0 
9.70352 1.23095 0.0 
4.51267 4.01151 0.0 
7.16027 0.69146 0.0 
3.93047 4.29298 0.0 
4.76297 3.98343 0.0 
3.88393 4.01426 0.0 
4.53315 4.00002 0.0 
3.88276 3.53332 0.0 
6.37297 2.73989 0.0 
6.50541 6.65271 0.0 
4.0914 3.96216 0.0 
4.08298 4.00762 0.0 
5.20281 3.96498 0.0 
4.00487 4.00528 0.0 
6.98728 5.60342 0.0 
4.65935 4.04515 0.0 
4.84809 6.69312 0.0 
4.05312 3.99197 0.0 
13.7435 8 0.0 
4.00414 3.99309 0.0 
6.67367 0 0.0 
4.00932 4.01975 0.0 
6.82471 4.26136 0.0 
4.20354 4.03712 0.0 
4.33601 4.03725 0.0 
4.84915 4.03246 0.0 
9.54961 6.99546 0.0 
13.6945 7.80328 0.0 
6.95088 7.06331 0.0 
4.47931 4.02134 0.0 
13.1055 3.48759 0.0 
6.22735 7.50315 0.0 
5.4293 4.67019 0.0 
6.85323 7.27439 0.0 
4.03779 3.98668 0.0 
10.0313 4.54518 0.0 
8.95603 7.57132 0.0 
4.22222 4.09636 0.0 
3.98122 4.01031 0.0 
4.40084 4.69815 0.0 
9.65423 4.26818 0.0 
4.50648 4.00235 0.0 
4.1283 4.05439 0.0 
4.90953 3.97583 0.0 
4.01079 3.9997 0.0 
4.08943 3.95494 0.0 
4.54778 4.01674 0.0 
4.00295 3.93741 0.0 
4.18074 4.21382 0.0 
1.21548 8 0.0 
4.37926 3.99504 0.0 
9.89876 3.93504 0.0 
4.09428 3.96323 0.0 
9.95518 3.59841 0.0 
4.48115 4.01697 0.0 
4.18332 3.96996 0.0 
10.6153 7.62373 0.0 
4.50342 4.00672 0.0 
4.08813 4.0538 0.0 
12.0372 1.49526 0.0 
4.14175 3.99869 0.0 
8.43409 3.16574 0.0 
12.2256 4.0084 0.0 
4.05399 4.05242 0.0 
5.11537 3.91723 0.0 
2.89316 5.49873 0.0 
7.99609 6.1415 0.0 
6.38052 3.13775 0.0 
5.9291 5.15993 0.0 
4.08463 4.01547 0.0 
3.4502 4.08866 0.0 
9.4176 1.73395 0.0 
4.30095 6.55577 0.0 
5.24537 4.1668 0.0 
4.02321 3.97317 0.0 
4.46368 4.04155 0.0 
4.49223 4.00862 0.0 
4.06062 3.97377 0.0 
8.35832 2.9685 0.0 
13.4699 7.45697 0.0 
4.88498 4.06106 0.0 
4.01229 3.97705 0.0 
4.80784 4.52341 0.0 
11.22 2.61787 0.0 
4.4033 3.99441 0.0 
4.09808 4.03387 0.0 
4.33917 4.03836 0.0 
4.00577 3.97873 0.0 
2.41657 7.83798 0.0 
11.4575 2.65158 0.0 
4.44583 3.99165 0.0 
7.62224 2.88267 0.0 
4.31302 3.99242 0.0 
6.21569 4.35018 0.0 
4.05827 4.04837 0.0 
4.05499 4.2159 0.0 
4.27411 4.0429 0.0 
6.11945 4.7193 0.0 
4.96928 3.97464 0.0 
5.8599 3.0813 0.0 
11.7855 3.46611 0.0 
0.139724 5.28321 0.0 
5.99012 4.04484 0.0 
4.21367 3.97319 0.0 
4.34844 4.03454 0.0 
4.6103 3.91602 0.0 
6.64238 0.26606 0.0 
2.77497 7.51281 0.0 
4.11575 4.03408 0.0 
4.5013 4.4271 0.0 
4.20274 4.07949 0.0 
4.44188 3.99688 0.0 
12.5015 1.14918 0.0 
4.09797 3.95385 0.0 
4.23052 4.09368 0.0 
4.20868 4.08388 0.0 
13.2101 4.45047 0.0 
5.0604 3.97687 0.0 
4.21025 4.03415 0.0 
11.0937 3.73737 0.0 
0.845864 1.62601 0.0 
13.3142 3.86224 0.0 
4.03796 3.98522 0.0 
3.98799 3.95955 0.0 
4.05642 4.03077 0.0 
8.82235 8 0.0 
4.23781 4.09881 0.0 
4.16892 4.04593 0.0 
4.69512 3.9114 0.0 
5.18268 3.9437 0.0 
4.06329 4.04721 0.0 
4.20802 4.04697 0.0 
4.18805 3.96826 0.0 
4.06172 4.07955 0.0 
4.5671 3.97265 0.0 
0.348252 3.38742 0.0 
0.417479 6.31883 0.0 
4.38725 4.07949 0.0 
7.12026 6.70684 0.0 
3.58155 4.19957 0.0 
3.99816 4.00816 0.0 
3.98977 4.04663 0.0 
3.99153 4.04254 0.0 
4.57553 4.01147 0.0 
11.8107 0.651755 0.0 
10.5319 2.82151 0.0 
11.3311 3.20725 0.0 
3.97296 4.00674 0.0 
11.3714 7.19716 0.0 
9.192 5.81999 0.0 
4.09232 3.98547 0.0 
3.53429 0 0.0 
4.67134 3.89044 0.0 
4.08953 4.02996 0.0 
4.14091 4.04918 0.0 
2.30378 3.03595 0.0 
8.94235 3.15878 0.0 
11.2705 7.61787 0.0 
7.40997 8 0.0 
4.55143 4.02795 0.0 
2.86414 6.59491 0.0 
4.09178 4.02837 0.0 
9.9204 3.84008 0.0 
4.12358 3.96288 0.0 
9.65721 5.90637 0.0 
4.93652 4.08387 0.0 
6.78993 2.13526 0.0 
0.332338 5.15195 0.0 
0.846754 0.565038 0.0 
6.73412 3.55133 0.0 
4.43948 3.99766 0.0 
7.34292 5.19319 0.0 
4.02904 3.9664 0.0 
7.59973 7.22298 0.0 
12.6277 1.80732 0.0 
4.67274 5.32738 0.0 
5.85073 0.410811 0.0 
13.0902 7.46595 0.0 
3.99586 4.00736 0.0 
9.90278 1.9712 0.0 
4.54089 4.00706 0.0 
0.898692 6.20579 0.0 
4.01845 4.01173 0.0 
9.40278 3.77708 0.0 
4.51225 4.03393 0.0 
3.96066 4.00697 0.0 
0.262648 3.59523 0.0 
4.96395 4.01931 0.0 
13.1661 5.68046 0.0 
13.7895 0 0.0 
4.10795 4.02897 0.0 
11.4878 0.917753 0.0 
11.4357 2.10385 0.0 
5.0506 5.17271 0.0 
4.04606 4.02962 0.0 
4.00791 4.0033 0.0 
4.0088 3.9805 0.0 
9.75515 2.36072 0.0 
4.02586 3.98561 0.0 
3.77162 4.00815 0.0 
4.02947 3.97325 0.0 
4.54803 4.00405 0.0 
4.6454 3.91884 0.0 
4.01129 4.00596 0.0 
7.95608 7.77452 0.0 
4.26153 4.05555 0.0 
7.56457 6.83703 0.0 
2.66772 5.1655 0.0 
4.01755 3.97046 0.0 
4.52386 4.04096 0.0 
0.195775 6.68759 0.0 
4.02768 3.86751 0.0 
6.42419 4.18044 0.0 
4.12609 4.06211 0.0 
4.05373 4.0206 0.0 
4.0593 4.0207 0.0 
8.6802 3.80876 0.0 
4.02687 4.06321 0.0 
4.11868 3.97589 0.0 
4.15516 3.94365 0.0 
4.01695 3.96353 0.0 
4.00353 3.9915 0.0 
8.32777 8 0.0 
3.84421 4.30619 0.0 
4.10973 3.9339 0.0 
4.5555 3.99978 0.0 
4.51883 4.01095 0.0 
5.06461 4.08435 0.0 
4.00437 3.9841 0.0 
4.27796 3.99024 0.0 
4.0134 3.97877 0.0 
3.03193 6.72582 0.0 
1.47689 3.96699 0.0 
4.01079 3.9893 0.0 
14 3.84943 0.0 
4.36156 4.08272 0.0 
2.48952 3.59766 0.0 
4.54396 3.89411 0.0 
4.48306 3.9988 0.0 
4.20001 4.03326 0.0 
7.19396 5.74117 0.0 
4.21639 4.03358 0.0 
3.92685 3.99783 0.0 
3.89766 4.03669 0.0 
11.5792 7.84461 0.0 
0.551344 1.2516 0.0 
4.02575 3.96118 0.0 
4.55691 3.99871 0.0 
6.49849 5.21743 0.0 
0.861823 0.804062 0.0 
12.5003 4.90843 0.0 
4.17427 4.7854 0.0 
4.07219 4.0344 0.0 
4.47415 3.99666 0.0 
4.76354 3.99674 0.0 
11.8351 6.74811 0.0 
4.05646 4.08843 0.0 
4.1127 3.96242 0.0 
4.1214 4.03972 0.0 
4.15116 3.93854 0.0 
4.13176 4.07898 0.0 
10.2186 2.28825 0.0 
4.10213 4.03915 0.0 
4.85957 4.01386 0.0 
4.47293 4.03853 0.0 
4.00279 3.99128 0.0 
4.05385 4.00986 0.0 
7.66491 7.40727 0.0 
13.8474 2.95034 0.0 
6.32476 7.00417 0.0 
12.5996 5.63737 0.0 
4.64409 4.00438 0.0 
10.2682 5.93402 0.0 
13.5607 4.50879 0.0 
1.33689 0.42959 0.0 
4.38872 4.00181 0.0 
10.9658 2.91173 0.0 
4.85208 4.04382 0.0 
3.85377 3.84163 0.0 
12.3042 5.26106 0.0 
4.08585 4.00485 0.0 
4.92837 0.227572 0.0 
3.96806 4.01296 0.0 
11.0968 5.75296 0.0 
4.55406 3.99831 0.0 
4.01037 4.03325 0.0 
5.74106 5.24436 0.0 
4.53312 4.00677 0.0 
2.38712 1.20485 0.0 
4.5467 4.03146 0.0 
1.67428 8 0.0 
4.04681 4.09657 0.0 
4.53595 4.04072 0.0 
7.20657 5.05296 0.0 
4.32631 3.99283 0.0 
4.00045 4.00043 0.0 
13.167 3.69177 0.0 
4.53295 4.01509 0.0 
10.9441 5.59852 0.0 
5.30644 0.173765 0.0 
0.198711 3.79297 0.0 
4.72583 0.194576 0.0 
3.90471 2.31823 0.0 
4.61918 3.98897 0.0 
5.35653 3.74718 0.0 
4.26617 4.04413 0.0 
4.45621 3.99608 0.0 
4.73668 3.89169 0.0 
4.04877 3.98924 0.0 
3.96886 4.00175 0.0 
4.64006 3.99672 0.0 
10.2024 1.42429 0.0 
4.41592 3.9953 0.0 
6.60362 4.13153 0.0 
4.82507 4.1106 0.0 
4.10171 3.98704 0.0 
10.7281 8 0.0 
0.347962 1.57688 0.0 
7.36099 6.27735 0.0 
4.45612 4.021 0.0 
7.00233 6.47926 0.0 
7.78364 0 0.0 
6.32437 6.34013 0.0 
4.2517 4.04254 0.0 
5.62592 4.80931 0.0 
4.7383 3.87602 0.0 
7.63917 0.511699 0.0 
4.4323 4.02656 0.0 
1.64832 6.43608 0.0 
13.7604 0.5867 0.0 
4.17191 3.91819 0.0 
4.20833 4.10668 0.0 
8.57985 3.52189 0.0 
4.25841 3.96952 0.0 
4.03014 4.02376 0.0 
9.64772 0.994062 0.0 
4.0219 3.98466 0.0 
4.24795 3.92322 0.0 
4.0052 4.0005 0.0 
10.6631 4.75828 0.0 
4.07396 4.02843 0.0 
10.4393 2.36192 0.0 
2.21546 4.23608 0.0 
13.8045 1.5263 0.0 
4.15951 4.04428 0.0 
7.05343 0.323278 0.0 
4.26176 4.59531 0.0 
4.01504 3.99463 0.0 
7.14156 0.150746 0.0 
1.32628 2.55488 0.0 
4.30398 3.99183 0.0 
12.8107 4.90079 0.0 
4.05208 4.03029 0.0 
4.5167 4.01269 0.0 
8.64936 2.61471 0.0 
9.46048 3.26649 0.0 
3.79815 4.13033 0.0 
7.18228 0.487344 0.0 
3.89234 3.84688 0.0 
4.47017 0.936125 0.0 
4.53123 4.02551 0.0 
4.19276 3.98818 0.0 
4.22688 4.04602 0.0 
[...]
<PointData>
  <DataArray type = "Float64" Name="Vitesse" NumberOfComponents="3" format="ascii">
1 0 0.0 
1.00478 0 0.0 
1.00335 0 0.0 
1 0 0.0 
0.999969 -0.000137238 0.0 
0.186132 0.00482534 0.0 
0.94237 -0.0379952 0.0 
0.787104 -8.46387e-05 0.0 
0.154045 -0.0292159 0.0 
0 0 0.0 
0.379275 0.00110275 0.0 
0.874544 -0.0945674 0.0 
1.00524 0.000726126 0.0 
0.996946 0.0237653 0.0 
0.774326 0.197509 0.0 
0.682396 0.189147 0.0 
0 0 0.0 
0.360686 -0.14948 0.0 
0.398177 0.0198414 0.0 
0.221462 0.00624145 0.0 
0.0264207 -0.00179838 0.0 
0.132858 -0.0159531 0.0 
0.959128 -0.0453187 0.0 
0 0 0.0 
0.371386 -0.0172561 0.0 
0.117785 -0.00180388 0.0 
1.00542 0 0.0 
1.0635 -0.200535 0.0 
1.00617 0.00140164 0.0 
1.00078 0.00125725 0.0 
0.892215 -0.0519081 0.0 
0.538825 0.0595115 0.0 
1.00771 6.38243e-05 0.0 
0.821996 0.0170603 0.0 
1.04706 0.208043 0.0 
1.00244 -0.00157484 0.0 
1.01231 -0.000689253 0.0 
1 0 0.0 
0.804082 0.0187075 0.0 
1.00474 -0.000246589 0.0 
1.0052 -0.000231309 0.0 
1.00808 -0.000596491 0.0 
0 0 0.0 
1.0805 -0.134802 0.0 
0.0198638 -0.00033865 0.0 
0.132056 -0.00992182 0.0 
0 0 0.0 
0.943154 -0.0161004 0.0 
1.00021 -0.00071498 0.0 
0.182432 -0.0236114 0.0 
0.502613 -0.0368224 0.0 
0.761645 0.104407 0.0 
0.0164512 0.000509637 0.0 
0 0 0.0 
1.03212 -0.0970012 0.0 
0.924729 0.316345 0.0 
0.72008 0.309255 0.0 
0 0 0.0 
1.00569 0 0.0 
0.730412 -0.0166888 0.0 
0.184705 0.004416 0.0 
1.00429 -0.000901034 0.0 
0.857353 -0.012922 0.0 
1.00385 -0.000264398 0.0 
0.0206927 0.000188786 0.0 
0.00258846 -0.000509857 0.0 
1.00931 -0.00030042 0.0 
0.0482817 -0.00497541 0.0 
0 0 0.0 
0.995239 -0.00722519 0.0 
0.266145 -0.0109469 0.0 
0 0 0.0 
0 0 0.0 
0.948176 0.0166251 0.0 
1.00617 5.99743e-05 0.0 
0.34757 0.0150352 0.0 
0.725425 0.0673467 0.0 
0.397074 0.00441051 0.0 
0.891236 0.00944921 0.0 
0.859617 -0.137473 0.0 
0.0802254 0.00287887 0.0 
1.0072 0.000139952 0.0 
0.0195742 -7.1981e-05 0.0 
0.980687 -0.0677448 0.0 
0.938079 0.0510078 0.0 
0.874231 -0.124911 0.0 
1.0273 -0.100828 0.0 
0.912726 0.323985 0.0 
0.695737 -0.0128494 0.0 
0.750296 0.107097 0.0 
0.0147909 0.00151089 0.0 
0.751137 0.131262 0.0 
0.686277 0.104791 0.0 
0.43064 0.132938 0.0 
0.743931 0.0768558 0.0 
0.346084 0.012593 0.0 
1.00082 -0.00177829 0.0 
1.00553 -0.00144528 0.0 
0.315395 0.0120154 0.0 
0.999497 -5.89596e-05 0.0 
0 0 0.0 
0.298947 0.0140078 0.0 
0 0 0.0 
1.00541 0.00052741 0.0 
0.299414 0.0273286 0.0 
0.283612 0.00821865 0.0 
1.78893e-42 2.24287e-43 0.0 
0.0371034 -0.00396456 0.0 
0 0 0.0 
1.00565 -0.00126287 0.0 
1.0006 0.000419486 0.0 
1.00621 0.000131049 0.0 
0.00348938 -0.000814975 0.0 
1.00608 -9.13412e-05 0.0 
0.992876 0.0590951 0.0 
0.381711 0.0176275 0.0 
0.893593 0.00299849 0.0 
9.21942e-06 1.06334e-06 0.0 
0.999205 -0.0272816 0.0 
1.00783 0.000125237 0.0 
1.00678 -0.000309567 0.0 
0.823044 -0.0624881 0.0 
0 0 0.0 
0.637337 0.00936248 0.0 
0 0 0.0 
1.0075 -0.00119217 0.0 
0.396073 -0.0358525 0.0 
1.00666 0.00134466 0.0 
0 0 0.0 
1.0035 0 0.0 
0.253303 -0.175492 0.0 
1.00582 0 0.0 
0.528945 0.307646 0.0 
1.00588 -0.00228701 0.0 
0 0 0.0 
0.0128026 -0.00107511 0.0 
0.41246 -0.01654 0.0 
1.00535 -0.000307506 0.0 
1.00356 -0.000112256 0.0 
1.00624 -0.000264592 0.0 
0.0288084 -0.00443587 0.0 
1.01049 0.000778886 0.0 
1.00615 -2.94614e-06 0.0 
1.01282 -0.00551751 0.0 
1.00614 -0.000174781 0.0 
0.0361173 -0.00444517 0.0 
1.008 -0.000975968 0.0 
1.00534 -0.000137759 0.0 
1.08818 0.0641813 0.0 
0.604821 0.0330444 0.0 
1.02651 0.0120135 0.0 
0.997035 -0.000537676 0.0 
4.25043e-170 1.82831e-171 0.0 
0.577872 0.0713041 0.0 
0.503559 0.014023 0.0 
0 0 0.0 
0.978481 -0.0918344 0.0 
0.0602039 -0.0120961 0.0 
0.967268 -0.188886 0.0 
1.07263 0.0737386 0.0 
1.00042 0 0.0 
0.00642298 0.000554117 0.0 
0.858703 0.00182156 0.0 
0.782037 -0.0537108 0.0 
1.00798 0.00059689 0.0 
0.00354703 -0.000740837 0.0 
0.421313 0.00248513 0.0 
1.00482 -0.000117791 0.0 
4.69557e-131 -5.50527e-132 0.0 
0.822109 0.167742 0.0 
1.0059 0.000448788 0.0 
3.73539e-173 1.59124e-174 0.0 
1.00718 0.000211184 0.0 
0.874033 -5.98515e-05 0.0 
0.962028 0.273981 0.0 
0.886509 0.0119961 0.0 
1.00129 0.00540624 0.0 
1.00641 -0.000700684 0.0 
1.00833 0.000248386 0.0 
1.00937 -0.00217476 0.0 
0 0 0.0 
0.980912 0.00546723 0.0 
1.0065 0.000153964 0.0 
1.00609 0.00238078 0.0 
1.00346 -0.0128763 0.0 
0.95003 -0.259067 0.0 
0.212617 -0.0219227 0.0 
4.56339e-212 -2.06865e-213 0.0 
0.586285 -0.0574362 0.0 
1.00719 0.000204685 0.0 
1.00376 -0.000279607 0.0 
0.644274 -0.0270791 0.0 
0.930479 -0.339084 0.0 
1.02417 -0.00705368 0.0 
1.00685 0.000543172 0.0 
0.0260809 0.00107946 0.0 
0 0 0.0 
0.0343804 -0.00344232 0.0 
0.895649 -0.385306 0.0 
1.00166 0.000229147 0.0 
1.00685 0.000604264 0.0 
0.083134 0.00236791 0.0 
1.0072 0.000176391 0.0 
0.0103864 0.000679492 0.0 
1.00791 -0.00361243 0.0 
0.881823 0.242565 0.0 
1.02109 0.0974111 0.0 
0.0320684 -0.00233075 0.0 
1.00915 -0.00328383 0.0 
0.530663 0.0130473 0.0 
1.00884 0.000446851 0.0 
1.00859 0.000978363 0.0 
0.999999 0.000126549 0.0 
0.709598 -0.0057955 0.0 
0.336671 0.00504304 0.0 
3.42577e-05 -1.5851e-06 0.0 
0.950305 0.0268056 0.0 
1.00586 -7.51179e-05 0.0 
1.00221 0.000779491 0.0 
0 0 0.0 
1.04142 0.00263496 0.0 
0.951375 0.0614421 0.0 
0.00561158 0.000326574 0.0 
1.00557 0.000382062 0.0 
0.969256 -0.0814679 0.0 
1.0647 0.0552015 0.0 
1.00092 0.0626476 0.0 
1.00831 -0.00171321 0.0 
0.543689 0.0100487 0.0 
0 0 0.0 
0.990362 0.000867138 0.0 
1.00006 -0.000445078 0.0 
0.927605 0.00268529 0.0 
0.129826 -0.0172902 0.0 
0.887028 -0.218413 0.0 
0.0840971 0.020759 0.0 
1.00532 0 0.0 
1.08765 0.0540375 0.0 
0.0890504 0.00173612 0.0 
0.950051 0.0281652 0.0 
0.754625 0.011571 0.0 
0.816694 0.211881 0.0 
0.0885982 0.00147 0.0 
0.459124 0.00150307 0.0 
1.03396 0.233075 0.0 
0.407794 0.0267038 0.0 
0.999969 -4.0097e-05 0.0 
1.00003 0.000335119 0.0 
0.765643 -0.0284055 0.0 
1.00643 -0.000437957 0.0 
0.977572 0.0158407 0.0 
0.262986 0.187627 0.0 
0.804564 0.205439 0.0 
0.787138 0.217382 0.0 
0.0576486 -0.0181955 0.0 
1.00561 0.000177713 0.0 
1.00699 0.0004044 0.0 
1.00748 0.000650733 0.0 
0.675129 -0.0143278 0.0 
1.00471 -0.000270056 0.0 
1.00632 -0.000647697 0.0 
1.67291e-05 -5.002e-07 0.0 
1.00273 0 0.0 
1.00998 0.0239342 0.0 
0 0 0.0 
0.305415 0.0276446 0.0 
0.998496 -0.00208978 0.0 
1.00718 0.000199177 0.0 
1.00461 -0.000127657 0.0 
1.00578 0 0.0 
0.147162 -0.0236953 0.0 
1.00239 0.00250811 0.0 
0 0 0.0 
0.941114 0.000799554 0.0 
0.69561 -0.0269195 0.0 
1.0061 -0.000592035 0.0 
0.815228 -0.0265465 0.0 
1.00711 -0.0001198 0.0 
0.999989 0.000294123 0.0 
1.00013 -0.000182043 0.0 
1.00819 0.000675206 0.0 
1.13964e-07 1.13368e-08 0.0 
1.00721 -0.00138639 0.0 
1.0211 -0.245419 0.0 
1.00591 -0.000260441 0.0 
1.00588 0.000646075 0.0 
1.01334 0.00363745 0.0 
1.00554 -0.000251373 0.0 
1.00394 -0.000247062 0.0 
0.300394 0.126288 0.0 
1.0066 0.000221266 0.0 
0.00681482 -0.00128823 0.0 
1.00012 0.00078611 0.0 
0 0 0.0 
0.987487 0.00111374 0.0 
0.16945 -0.0201115 0.0 
0.747234 -0.0128607 0.0 
0.999977 6.40579e-06 0.0 
0.420494 -0.00711034 0.0 
1.0052 -0.001195 0.0 
1.00486 0 0.0 
0 0 0.0 
1.00578 0.000223011 0.0 
1.00646 0.000496879 0.0 
1.01318 -0.000264858 0.0 
0.216301 0.0676548 0.0 
0 0 0.0 
0.878149 -0.367555 0.0 
1.00684 0.000245243 0.0 
0.251401 -0.0480073 0.0 
0.944497 0.000993736 0.0 
0.898765 -0.20837 0.0 
0.00187861 -0.000414561 0.0 
0.927482 0.0290985 0.0 
0 0 0.0 
1.00564 -7.54336e-05 0.0 
0.315651 -0.00646407 0.0 
1.00614 -0.000411044 0.0 
0.999698 0.00505374 0.0 
0.994697 -0.302464 0.0 
0.258728 -0.0279888 0.0 
1 0.000129173 0.0 
1.01031 -0.104785 0.0 
0.993707 -0.00389603 0.0 
0.833759 0.117403 0.0 
0 0 0.0 
0 0 0.0 
0.976444 0.00104235 0.0 
0.942869 0.26768 0.0 
0.312396 -0.00265307 0.0 
0.979075 -0.0465004 0.0 
1.0065 -0.280661 0.0 
0.452803 -0.307305 0.0 
1.00548 0 0.0 
0.984992 0.0445144 0.0 
1.07981 -0.0941119 0.0 
9.35698e-11 1.35602e-12 0.0 
0.00609235 -0.00106814 0.0 
0.820165 -0.0214299 0.0 
0.804899 -0.413614 0.0 
0.0252018 0.000699958 0.0 
0.892236 -0.319064 0.0 
1.00275 0.00234071 0.0 
0.999119 0.000422672 0.0 
0.312368 -0.112607 0.0 
0.934348 0.005071 0.0 
0.821704 -0.0216985 0.0 
0.996493 -0.00110375 0.0 
1.03025 0.0128507 0.0 
1.34963e-41 3.50279e-43 0.0 
0 0 0.0 
1.00722 -0.00104127 0.0 
0 0 0.0 
0.8448 -0.0236256 0.0 
0.884632 0.0251257 0.0 
1.00446 -5.4031e-05 0.0 
1.00004 -0.000234999 0.0 
1.03627 -0.253214 0.0 
0.0142482 0.000967631 0.0 
1.00807 -0.00181904 0.0 
1.00013 -0.000259458 0.0 
1.00641 -0.00125204 0.0 
1.01771 0.0169563 0.0 
0.0958915 0.0210365 0.0 
0.0200806 0.000639755 0.0 
0.300843 0.00833204 0.0 
1.00481 -0.000452888 0.0 
1.02193 0.21773 0.0 
0.738901 -0.0364746 0.0 
0 0 0.0 
1.02895 -0.0559203 0.0 
1.0709 0.153669 0.0 
1.00676 0.000288611 0.0 
0.0589466 0.0100939 0.0 
0.348028 -0.00494078 0.0 
0.184115 -0.0201926 0.0 
0.499763 -0.352526 0.0 
0 0 0.0 
1.00582 -0.000196821 0.0 
1.0056 0.00142568 0.0 
1.0065 -0.000105654 0.0 
1.00557 -0.00102421 0.0 
0.162214 0.00411555 0.0 
1.00594 -0.000577593 0.0 
1.00958 -0.0020134 0.0 
1.00034 -0.000232507 0.0 
1.53259e-290 1.53116e-292 0.0 
1.00709 0.000483818 0.0 
0.493323 -0.0224058 0.0 
0.961753 -0.0447198 0.0 
1.00603 -0.00109072 0.0 
0 0 0.0 
1.0047 -0.000254479 0.0 
0.713374 0.0218057 0.0 
1.00597 -0.000664384 0.0 
0.0192112 -0.000249477 0.0 
0.784021 0.342782 0.0 
1.00993 -0.00180684 0.0 
1.52758e-203 -3.0568e-204 0.0 
1.00104 -0.00133107 0.0 
0.175638 -0.0248553 0.0 
1.00079 0 0.0 
1.00468 0.203418 0.0 
0.265848 -0.0297641 0.0 
1.00733 -0.00159624 0.0 
0.0107246 0.000679674 0.0 
0 0 0.0 
0.99319 0.00283566 0.0 
0.0371667 -0.00633179 0.0 
1.00617 -0.000677035 0.0 
1.00508 -0.000160485 0.0 
0.999992 2.85851e-05 0.0 
1.00445 -0.000241181 0.0 
1.00447 -0.00550061 0.0 
0.228895 0.0228951 0.0 
1.00817 0.00482901 0.0 
0.0483267 -0.00213473 0.0 
0.0210419 9.63396e-05 0.0 
0.996024 0.023337 0.0 
0 0 0.0 
0.706597 -0.0460225 0.0 
0.190478 0.0129809 0.0 
1.00625 0.000192238 0.0 
0.0182717 0.000242329 0.0 
0.935421 -0.00378332 0.0 
0.944758 -0.0335523 0.0 
0 0 0.0 
1.00472 0 0.0 
1.00001 -0.000169917 0.0 
1.00664 -0.000677165 0.0 
0.0031579 -0.000586501 0.0 
1.00668 -0.000540579 0.0 
1.00597 0 0.0 
1.00726 -0.000414387 0.0 
4.68892e-05 -3.59423e-06 0.0 
1.01107 -0.00391947 0.0 
1.01515 0.02081 0.0 
1.00605 -2.87641e-05 0.0 
0.0189775 -0.00265617 0.0 
1.00057 0.001443 0.0 
1.00494 0.000212582 0.0 
1.07514 -0.057202 0.0 
1.12251 0.0813628 0.0 
1.00744 0.000337992 0.0 
0.406678 0.0058971 0.0 
0.181826 0.0616898 0.0 
1.00611 0.000101962 0.0 
0.406023 -0.0978393 0.0 
1.03064 -0.0259477 0.0 
0 0 0.0 
1.00697 -0.000792656 0.0 
2.56833e-99 5.84918e-100 0.0 
1.00679 0.000332089 0.0 
0.997594 0.00165526 0.0 
1.0052 0.000602106 0.0 
0.0467979 0.00192877 0.0 
1.00595 -5.40335e-05 0.0 
1.02863 0.0204865 0.0 
1.32017e-63 -4.05602e-64 0.0 
1.00594 -2.28017e-05 0.0 
0.999796 -0.000813596 0.0 
0.0137372 0.00116286 0.0 
1.00649 -0.00145897 0.0 
0.13719 0.0379983 0.0 
0.0119621 -0.00214405 0.0 
1.00706 0.000171439 0.0 
1.00762 0.00013817 0.0 
0.950614 0.0324432 0.0 
1.006 -6.53205e-05 0.0 
0.96232 -0.0565953 0.0 
1.00446 -0.00133245 0.0 
0.107967 -0.0152949 0.0 
0.0095546 0.000954401 0.0 
0.0645069 -0.00212524 0.0 
1.00701 0.000305864 0.0 
0.0487077 0.0168689 0.0 
0.0232477 -0.00239732 0.0 
1 0 0.0 
0.802708 0.319072 0.0 
0.315655 0.0449617 0.0 
1.00451 -0.000193967 0.0 
1.00426 -0.000245242 0.0 
0.28386 -0.0409138 0.0 
0.00842407 0.000903049 0.0 
1.00622 -0.000373002 0.0 
1.00633 0.0163152 0.0 
1.00588 4.4407e-05 0.0 
0.902357 -0.00389622 0.0 
0.0109065 -0.00156297 0.0 
0.99988 0.000976062 0.0 
0.705621 0.0132537 0.0 
0.692153 0.00104586 0.0 
1.00628 0.000230285 0.0 
0.00274425 -0.000144363 0.0 
1.61764e-05 1.35225e-06 0.0 
0.963537 -0.283044 0.0 
0.0264626 0.00236545 0.0 
1 0.000232014 0.0 
1.00577 -0.000382967 0.0 
0.0858775 0.00229097 0.0 
0.00641777 -0.00128847 0.0 
0.924653 -0.305866 0.0 
0.997325 -0.000785833 0.0 
0.999356 0.000716837 0.0 
1.00663 0.000650115 0.0 
0 0 0.0 
1.00002 -0.000184152 0.0 
1.00581 0.00106681 0.0 
0.91379 -0.00373648 0.0 
1.00728 0.000385794 0.0 
1.0028 0.0011598 0.0 
0.897617 0.13759 0.0 
0.812597 0.0140908 0.0 
1.00398 0 0.0 
1.00024 0.000356902 0.0 
0.260741 0.0228932 0.0 
0.337952 0.0546789 0.0 
1.00519 -0.000165958 0.0 
1.01016 0.00420532 0.0 
1.01807 0.00947491 0.0 
0.501559 -0.0127924 0.0 
1.00559 5.31028e-05 0.0 
0.635707 0.0145071 0.0 
0.0767864 -0.00436787 0.0 
0.704886 0.0906127 0.0 
1.00396 -0.000346847 0.0 
1.00134 0.00279032 0.0 
1.0052 0.00145543 0.0 
1.0054 -0.000779167 0.0 
1.00814 0.00202495 0.0 
1.00774 -0.00128396 0.0 
1.00595 -0.00115189 0.0 
1.00642 0.0001601 0.0 
1.00888 0.0018969 0.0 
1.00003 0.000300591 0.0 
0.0316716 0.00116271 0.0 
1.0069 0.000325619 0.0 
1.00703 -0.000693961 0.0 
1.00628 -0.000337368 0.0 
1.74745e-176 3.85935e-177 0.0 
1.00815 -0.00712083 0.0 
1.00541 -0.000172257 0.0 
1.00838 0.00127534 0.0 
1.00001 0 0.0 
0.0102414 0.000118757 0.0 
0.722917 -0.0308259 0.0 
0.0034002 -0.000756135 0.0 
0.384105 -0.010815 0.0 
0.98364 0.139364 0.0 
1.00637 -0.000658355 0.0 
0.600093 0.0141826 0.0 
0.707661 -0.00870735 0.0 
0.999937 -0.00133888 0.0 
0.00960452 -0.00125234 0.0 
0 0 0.0 
0.790658 0.00185339 0.0 
1.00569 -0.000271051 0.0 
0.39042 0.13856 0.0 
0.999997 -0.000439922 0.0 
0.331903 -0.00585047 0.0 
1.00562 9.66991e-05 0.0 
1.00104 0.00239209 0.0 
1.00529 -0.000431684 0.0 
1.12519 0.0826804 0.0 
0.203582 0.0173546 0.0 
1.00648 -0.000691559 0.0 
1.00628 -0.000635573 0.0 
1.03995 -0.00260178 0.0 
1.00395 0.00025277 0.0 
0.0291237 -0.000229753 0.0 
1.00693 7.26411e-05 0.0 
1.00885 0.000626589 0.0 
0.886702 -0.0210751 0.0 
0.87952 0.0100375 0.0 
1.00399 -0.000184772 0.0 
0.560872 -0.0356789 0.0 
0.868732 -0.0164061 0.0 
0.862224 0.0304661 0.0 
0.514264 0.264081 0.0 
1.01315 0.0263844 0.0 
0.0306575 -0.0167933 0.0 
0.0187711 -0.00260365 0.0 
0.620717 0.0269025 0.0 
0.440846 -0.0161726 0.0 
0.00461995 -0.000696599 0.0 
1.0057 -0.00072858 0.0 
0.0135768 -0.00232552 0.0 
0 0 0.0 
1.0074 0.00024617 0.0 
1.00561 -0.0449533 0.0 
1.00709 0.000104332 0.0 
1.00725 0.000119817 0.0 
1.00411 -0.000249135 0.0 
1.00505 -0.00248864 0.0 
0.0607019 -0.0132224 0.0 
0.998892 0.00447574 0.0 
1.0057 0.000871934 0.0 
1.90025e-211 -1.32277e-212 0.0 
1.00174 -0.000506477 0.0 
1.00574 5.25744e-05 0.0 
0.174585 0.0539034 0.0 
0.0278694 0.0013619 0.0 
1.00599 -5.57437e-05 0.0 
1.00469 -0.00284573 0.0 
4.00005e-05 2.30316e-06 0.0 
1.03851 0.0238793 0.0 
1.0047 -0.00111887 0.0 
1.00657 -0.000229727 0.0 
0.0455972 -0.000200826 0.0 
1.00845 -0.00214701 0.0 
1.00435 0.00131685 0.0 
0.975636 -0.00130169 0.0 
0.970943 -0.037656 0.0 
0.997488 -0.00255768 0.0 
1.00427 -0.00291366 0.0 
1 -0.000953981 0.0 
0.0358772 0.00364108 0.0 
1.00594 -3.3411e-05 0.0 
1.00703 0.000518005 0.0 
1.00711 0.000224321 0.0 
0.0706224 0.00990303 0.0 
1.00616 -0.000637878 0.0 
0.95542 0.0281645 0.0 
0.912903 -0.0161577 0.0 
1.0074 -0.000735967 0.0 
1.00622 0.00111705 0.0 
0.0362631 -0.00721915 0.0 
0.993347 0.0016957 0.0 
0.0383894 0.00295246 0.0 
1.0015 0.00123505 0.0 
1.00527 -0.0004596 0.0 
0.453483 0.207068 0.0 
0.997472 0.0123346 0.0 
0.834726 0.291748 0.0 
1.0066 -0.000143773 0.0 
1.00001 -0.000260832 0.0 
1.00007 -0.00021996 0.0 
0.861395 0.031345 0.0 
0.272759 0.00458927 0.0 
1.00753 0.000277111 0.0 
1.00876 0.000181281 0.0 
0.00392826 -0.00069543 0.0 
1.05991 0.094741 0.0 
0.000109501 8.24317e-06 0.0 
1.01955 -0.0938275 0.0 
1.00587 9.7426e-05 0.0 
1.0071 0.000184761 0.0 
0.401939 0.00502839 0.0 
0.886186 0.0154916 0.0 
0.431274 0.00790014 0.0 
0 0 0.0 
1.00645 -0.000618321 0.0 
1.00695 -0.000700011 0.0 
0.395635 -0.00958928 0.0 
1.00565 -0.000769036 0.0 
1.00593 -0.000111011 0.0 
1.00505 -0.00122842 0.0 
1.0053 -0.000628566 0.0 
0.181585 0.000371526 0.0 
0 0 0.0 
0 0 0.0 
1.00552 0.000759091 0.0 
1.00544 -0.000626724 0.0 
0.388547 0.0054793 0.0 
1.00491 -0.000129369 0.0 
0.403021 0.0314991 0.0 
1.00058 -0.000419456 0.0 
0.00761999 0.000638047 0.0 
1.00457 -0.000491914 0.0 
0.904517 -0.0944938 0.0 
0.893174 0.014022 0.0 
1.00454 -0.000538137 0.0 
1.00008 -0.000693283 0.0 
0.0561444 0.00342624 0.0 
1.00481 -0.000172669 0.0 
0.927427 -0.164277 0.0 
1.00128 -0.00669858 0.0 
0.0147206 -0.00225013 0.0 
1.00502 -0.000739837 0.0 
0.607948 0.0304331 0.0 
0.301883 0.0660547 0.0 
0.41729 0.00198642 0.0 
0.911001 -0.0563511 0.0 
1.0067 0.00101113 0.0 
0.4337 -0.0010629 0.0 
1.00797 -0.000144441 0.0 
0.598935 -0.000271752 0.0 
0.994399 -0.00132036 0.0 
1.00604 -0.000306378 0.0 
1.00888 0.000739243 0.0 
1.00414 -0.00253203 0.0 
0.44753 -0.0175665 0.0 
1.00084 0.0168659 0.0 
0.0312831 -0.016328 0.0 
0.572044 0.00183295 0.0 
1.00464 -0.000729263 0.0 
1.00675 -0.000643905 0.0 
1.00763 -0.00194165 0.0 
1.01055 -0.000475317 0.0 
0.000996792 0.000167472 0.0 
0.333741 -0.00156696 0.0 
0.353801 -0.00174743 0.0 
1.006 0.000114806 0.0 
0.999108 0.00103776 0.0 
1.00689 -1.14999e-05 0.0 
0.788035 0.141146 0.0 
0.999855 0.000379425 0.0 
1.00592 -0.000645908 0.0 
1.00636 8.75198e-05 0.0 
1.00004 0.00018674 0.0 
1.0073 8.42384e-05 0.0 
0.91916 0.00210781 0.0 
0.346462 0.00101899 0.0 
1.00521 0.000300473 0.0 
0.999846 0.00317501 0.0 
0.794041 -0.00113828 0.0 
0.999832 -0.000286932 0.0 
0.997669 0.00434579 0.0 
1.00588 0.000389024 0.0 
1.00001 -0.000133761 0.0 
0.970253 -0.0668408 0.0 
0.0316739 -0.00329774 0.0 
0.444029 0.174235 0.0 
1.00604 0.000252716 0.0 
1.00322 0.00220856 0.0 
1.00446 -0.00109675 0.0 
1.00833 0.000573426 0.0 
0.47098 -0.0225075 0.0 
0.835459 -0.0515189 0.0 
1 -0.000255245 0.0 
0.322872 -0.234609 0.0 
0.389863 0.0863349 0.0 
1.0064 -8.74914e-05 0.0 
0.698068 0.00429409 0.0 
1.00236 0.00977439 0.0 
1.00562 -0.000191326 0.0 
0.948627 -0.0516489 0.0 
0.566328 -0.0174141 0.0 
1.00132 0.000847532 0.0 
1.00773 -0.00102148 0.0 
1.00461 0.00654125 0.0 
0 0 0.0 
1.00628 0.000291677 0.0 
1.00001 7.20727e-05 0.0 
0.235978 0.0041929 0.0 
1.48529e-06 4.01205e-08 0.0 
0.482743 0.0678246 0.0 
1.007 -0.000319857 0.0 
1.00262 0.151193 0.0 
0.885241 -0.0550411 0.0 
0.0151712 -0.0280623 0.0 
1.00574 0.000170737 0.0 
0.14144 0.0277557 0.0 
0.518735 -0.0464422 0.0 
1.00732 -0.0018687 0.0 
0 0 0.0 
0.914683 -0.373151 0.0 
0.823493 0.00501148 0.0 
1.0058 -0.00105663 0.0 
0.951861 0.0225875 0.0 
1.11691 0.0424151 0.0 
1.0048 -0.00149802 0.0 
1.00664 0.00104427 0.0 
1.00483 -0.0015422 0.0 
1.00662 -0.000786292 0.0 
0.0452813 -0.0048742 0.0 
0 0 0.0 
1.00477 -0.000206067 0.0 
0.999761 0.00185125 0.0 
0.0013903 -4.03677e-05 0.0 
1.00538 4.87864e-05 0.0 
0.0152406 -6.22787e-05 0.0 
1.00558 0 0.0 
0.883654 -0.0205595 0.0 
0.00855543 0.000788614 0.0 
0.0809245 0.0549675 0.0 
1.00595 0.000940457 0.0 
1.0068 -0.000845707 0.0 
0.0652669 -0.00035756 0.0 
1.00355 0.000853356 0.0 
0.976169 -0.0341863 0.0 
1.00758 0.000221844 0.0 
0.0103534 -0.000420925 0.0 
0.948232 0.0207667 0.0 
1.00682 -0.000809134 0.0 
1.00668 0.000347311 0.0 
1.0057 0.000809641 0.0 
0.875679 0.163771 0.0 
6.92295e-20 8.97447e-20 0.0 
1.01139 -0.0134492 0.0 
1.00604 -1.03899e-05 0.0 
0 0 0.0 
0.059557 0.0116938 0.0 
1.00333 0 0.0 
1.00604 9.27178e-05 0.0 
0.914644 0.0302623 0.0 
0.143169 -0.231024 0.0 
0.6565 0.0110249 0.0 
0.612261 -0.431389 0.0 
1.00603 -0.000401643 0.0 
0.999515 -0.00085497 0.0 
1.00681 4.22414e-06 0.0 
1.00124 -0.00226614 0.0 
1.0078 -0.00510165 0.0 
0.0469179 -0.00807465 0.0 
1.00619 0.00092741 0.0 
1.36682e-128 1.04421e-129 0.0 
1.00714 -0.000508165 0.0 
1.00381 -0.00173728 0.0 
0.974238 -0.0229373 0.0 
0.999921 -0.000228879 0.0 
0.0232142 0.00191277 0.0 
0.165496 0.00483367 0.0 
0.690945 -0.0143948 0.0 
1.00097 -0.000853403 0.0 
1.00012 -0.000687401 0.0 
0.939828 -0.283584 0.0 
0.999478 0.000171565 0.0 
1.00001 0.000102276 0.0 
0.157187 0.00864479 0.0 
1.00644 -0.00102389 0.0 
1.00464 -0.00348518 0.0 
1.00358 0.00444345 0.0 
0.999923 9.17985e-06 0.0 
1.0091 0.00379989 0.0 
1.00029 0.000673529 0.0 
1.0078 -0.000333507 0.0 
0.192256 0.0666177 0.0 
3.28438e-209 9.3048e-211 0.0 
1.00985 -0.00356729 0.0 
4.91827e-07 2.26258e-08 0.0 
1.11438 0.08997 0.0 
0.831071 0.333677 0.0 
1.00083 0.000467818 0.0 
0.999966 0.000829225 0.0 
0.435162 0.0129991 0.0 