<VTKFile type="UnstructuredGrid" version="0.1" byte_order="LittleEndian">
  <UnstructuredGrid>
    <Piece NumberOfPoints="13609" NumberOfCells="27029">
      <Points>
        <DataArray type = "Float64" NumberOfComponents="3" format="ascii">
0 0 0.0 
14 0 0.0 
14 8 0.0 
0 8 0.0 
3.99732 3.99732 0.0 
4.00498 4.00961 0.0 
4.32465 3.99215 0.0 
0.382322 2.91093 0.0 
4.57278 4.01593 0.0 
4.10989 3.98398 0.0 
7.7278 7.63087 0.0 
4.07057 3.9639 0.0 
4.53824 7.43039 0.0 
4.16144 4.04514 0.0 
3.98741 4.04054 0.0 
3.98768 4.02653 0.0 
3.90498 4.0501 0.0 
4.01703 7.79668 0.0 
4.06762 3.97376 0.0 
4.46236 4.0213 0.0 
3.95527 4.79872 0.0 
4.47538 4.03375 0.0 
4.67405 4.10923 0.0 
4.1789 4.0308 0.0 
4.80484 4.03022 0.0 
4.61584 4.00791 0.0 
5.18316 3.76291 0.0 
12.1265 0 0.0 
4.43304 4.48121 0.0 
4.44951 3.99719 0.0 
4.60418 3.96374 0.0 
4.15359 3.98719 0.0 
4.13489 4.05432 0.0 
4.65153 4.02457 0.0 
4.51222 4.06033 0.0 
4.32637 4.10272 0.0 
5.45662 5.22808 0.0 
4.2532 4.04441 0.0 
0 3.36284 0.0 
4.93697 3.93496 0.0 
4.2321 4.07437 0.0 
10.4908 7.41058 0.0 
10.1734 4.4195 0.0 
4.0273 4.01367 0.0 
4.20997 0.181458 0.0 
3.63167 3.86551 0.0 
4.62342 4.01415 0.0 
7.30267 3.36471 0.0 
5.17517 4.1161 0.0 
4.03692 4.02379 0.0 
3.93616 4.15847 0.0 
5.52077 4.01048 0.0 
4.12607 4.05951 0.0 
4.04579 4.34833 0.0 
4.2483 4.03635 0.0 
4.0955 3.94899 0.0 
4.03444 4.04627 0.0 
4.00163 4.02959 0.0 
4.02005 3.99731 0.0 
5.23503 8 0.0 
4.30375 3.97965 0.0 
4.8618 5.24933 0.0 
10.9628 4.1156 0.0 
5.35828 4.09214 0.0 
4.05908 4.0108 0.0 
3.96923 4.17249 0.0 
0.199854 7.79205 0.0 
4.06521 4.00004 0.0 
5.36227 4.11438 0.0 
4.10206 3.96084 0.0 
4.27119 3.99059 0.0 
3.90674 3.97638 0.0 
4.32046 1.78584 0.0 
4.04672 4.0202 0.0 
4.94501 3.90266 0.0 
4.53933 3.9985 0.0 
4.54772 3.97659 0.0 
3.96947 4.02134 0.0 
4.09058 3.99334 0.0 
4.07493 4.0351 0.0 
3.96297 3.96024 0.0 
4.21254 3.97074 0.0 
4.15932 4.03394 0.0 
4.3499 4.01704 0.0 
4.11692 3.94964 0.0 
4.29389 4.0432 0.0 
3.95785 3.95439 0.0 
4.51328 4.0121 0.0 
4.02972 4.04518 0.0 
4.63875 4.06434 0.0 
3.97141 4.03046 0.0 
4.47892 3.99557 0.0 
3.97561 4.03322 0.0 
3.97816 4.02179 0.0 
4.04633 4.03304 0.0 
3.96767 4.02507 0.0 
4.53971 3.97638 0.0 
4.47307 4.01834 0.0 
5.25231 4.08081 0.0 
4.54225 3.97864 0.0 
4.05958 4.04239 0.0 
4.51894 4.03106 0.0 
4.54991 3.98013 0.0 
2.92109 4.80681 0.0 
5.98162 8 0.0 
4.73521 7.52615 0.0 
4.35427 4.03769 0.0 
0.762019 5.13086 0.0 
5.2844 3.91484 0.0 
4.79265 3.99229 0.0 
4.51322 3.98638 0.0 
4.06171 3.97809 0.0 
3.99474 4.00051 0.0 
4.11581 4.05249 0.0 
4.45444 3.99768 0.0 
6.40969 2.27914 0.0 
4.31419 3.99359 0.0 
3.89408 4.12152 0.0 
4.51779 3.98491 0.0 
4.94157 3.98326 0.0 
4.46045 3.99752 0.0 
4.22437 4.04428 0.0 
4.30783 4.05952 0.0 
6.37297 2.73989 0.0 
6.50541 6.65271 0.0 
4.0914 3.96216 0.0 
4.38113 3.99363 0.0 
5.20281 3.96498 0.0 
12.0185 5.47289 0.0 
4.68458 4.02212 0.0 
4.65935 4.04515 0.0 
12.6474 3.41509 0.0 
4.05312 3.99197 0.0 
13.7435 8 0.0 
4.11702 4.02719 0.0 
6.67367 0 0.0 
4.00932 4.01975 0.0 
6.82471 4.26136 0.0 
4.20354 4.03712 0.0 
4.50365 4.01197 0.0 
5.81067 5.0017 0.0 
4.46068 4.02023 0.0 
4.37551 4.03925 0.0 
13.4868 6.98366 0.0 
1.60222 4.99327 0.0 
4.28507 3.99147 0.0 
6.22735 7.50315 0.0 
4.71924 4.00853 0.0 
4.60221 3.95456 0.0 
4.52577 4.00795 0.0 
10.4928 5.29986 0.0 
8.95603 7.57132 0.0 
6.26265 7.14539 0.0 
4.22222 4.09636 0.0 
3.98122 4.01031 0.0 
4.19586 4.09386 0.0 
4.72674 4.01395 0.0 
4.52652 4.01385 0.0 
4.70958 7.08222 0.0 
4.00988 3.97037 0.0 
4.09717 3.98531 0.0 
13.8261 5.94601 0.0 
4.54778 4.01674 0.0 
4.08927 3.9549 0.0 
5.29213 4.05789 0.0 
4.58459 4.50021 0.0 
9.00321 4.86505 0.0 
2.61514 0.506135 0.0 
4.09428 3.96323 0.0 
4.47176 4.00828 0.0 
4.88569 3.98105 0.0 
4.1403 4.03691 0.0 
4.18332 3.96996 0.0 
3.59965 3.72235 0.0 
4.26449 3.98943 0.0 
4.36443 4.03431 0.0 
12.0372 1.49526 0.0 
4.90839 4.00372 0.0 
5.01113 4.1034 0.0 
10.4619 3.53679 0.0 
0.384822 4.35157 0.0 
5.11537 3.91723 0.0 
13.0484 3.93508 0.0 
2.13112 6.6549 0.0 
6.38052 3.13775 0.0 
5.9291 5.15993 0.0 
4.22553 4.07149 0.0 
4.33709 3.99447 0.0 
9.4176 1.73395 0.0 
4.20327 3.97947 0.0 
5.24537 4.1668 0.0 
7.58471 5.24477 0.0 
4.46368 4.04155 0.0 
4.00964 3.98933 0.0 
10.9215 3.71735 0.0 
8.35832 2.9685 0.0 
13.4699 7.45697 0.0 
6.49425 0.938237 0.0 
4.01229 3.97705 0.0 
4.06076 3.97364 0.0 
4.11019 3.98524 0.0 
1.06432 1.49826 0.0 
4.09808 4.03387 0.0 
4.00813 4.01182 0.0 
4.00577 3.97873 0.0 
4.05099 4.00074 0.0 
4.31511 3.99151 0.0 
4.62528 3.9827 0.0 
4.05396 4.05241 0.0 
7.62224 2.88267 0.0 
7.22419 0.703495 0.0 
4.52947 3.99713 0.0 
4.07002 4.08986 0.0 
4.05731 4.02647 0.0 
4.75099 4.8112 0.0 
4.98619 3.93198 0.0 
10.2824 1.17531 0.0 
5.8599 3.0813 0.0 
3.10914 5.59567 0.0 
3.31161 1.01031 0.0 
4.93904 4.11785 0.0 
4.55037 4.00822 0.0 
11.1865 7.25481 0.0 
4.6103 3.91602 0.0 
4.19552 3.98805 0.0 
11.0142 2.68936 0.0 
4.11575 4.03408 0.0 
4.06437 4.05592 0.0 
4.20274 4.07949 0.0 
4.45455 2.45817 0.0 
12.5015 1.14918 0.0 
4.09797 3.95385 0.0 
4.23052 4.09368 0.0 
4.20868 4.08388 0.0 
4.5359 4.02649 0.0 
3.73135 5.50506 0.0 
13.611 1.35207 0.0 
4.21025 4.03415 0.0 
4.20766 3.97838 0.0 
1.21543 8 0.0 
3.84724 3.99971 0.0 
7.23049 2.80509 0.0 
3.98799 3.95955 0.0 
4.53802 4.03292 0.0 
4.03566 4.02365 0.0 
8.82235 8 0.0 
4.23781 4.09881 0.0 
4.00773 4.00001 0.0 
4.43107 4.03277 0.0 
4.69512 3.9114 0.0 
4.03302 4.01898 0.0 
4.18803 3.98661 0.0 
8.48287 5.04599 0.0 
4.06329 4.04721 0.0 
4.00241 3.93804 0.0 
4.18805 3.96826 0.0 
4.0615 5.22356 0.0 
5.25032 1.89548 0.0 
11.5617 2.8634 0.0 
0.417479 6.31883 0.0 
9.9721 3.6087 0.0 
4.21358 4.04577 0.0 
1.21408 1.2833 0.0 
4.57455 4.08212 0.0 
3.98977 4.04663 0.0 
3.99153 4.04254 0.0 
4.57553 4.01147 0.0 
4.29499 3.9921 0.0 
3.10089 2.25184 0.0 
4.01003 3.99134 0.0 
3.97296 4.00674 0.0 
11.3714 7.19716 0.0 
9.192 5.81999 0.0 
4.76297 3.98343 0.0 
3.53429 0 0.0 
4.67134 3.89044 0.0 
4.08953 4.02996 0.0 
4.27509 3.99168 0.0 
2.30378 3.03595 0.0 
4.14091 4.04918 0.0 
9.65837 4.25696 0.0 
7.40997 8 0.0 
4.02321 3.97317 0.0 
2.86414 6.59491 0.0 
4.30994 3.99248 0.0 
3.88463 3.533 0.0 
4.56283 3.99857 0.0 
4.00414 3.99309 0.0 
4.47092 4.06223 0.0 
6.78993 2.13526 0.0 
4.3628 4.0366 0.0 
0.846754 0.565038 0.0 
1.48233 7.50025 0.0 
0.161642 7.54 0.0 
4.01425 3.98947 0.0 
4.96928 3.97464 0.0 
7.59973 7.22298 0.0 
12.6277 1.80732 0.0 
14 4.58149 0.0 
5.85073 0.410811 0.0 
13.0902 7.46595 0.0 
4.615 3.93962 0.0 
4.02912 3.96643 0.0 
5.21688 3.31424 0.0 
3.9183 4.01934 0.0 
5.89817 4.00199 0.0 
4.77972 4.48607 0.0 
4.51225 4.03393 0.0 
3.96066 4.00697 0.0 
3.69149 4.54391 0.0 
4.96395 4.01931 0.0 
13.1661 5.68046 0.0 
13.7895 0 0.0 
4.10795 4.02897 0.0 
13.1818 2.98063 0.0 
11.4357 2.10385 0.0 
4.12293 4.03987 0.0 
4.27574 3.95853 0.0 
4.00791 4.0033 0.0 
4.0088 3.9805 0.0 
9.75515 2.36072 0.0 
4.84915 4.03246 0.0 
4.62068 4.09144 0.0 
4.02947 3.97325 0.0 
3.95595 4.06684 0.0 
4.6454 3.91884 0.0 
4.01129 4.00596 0.0 
4.089 4.03541 0.0 
6.98728 5.60342 0.0 
4.70512 4.01377 0.0 
9.69483 7.24214 0.0 
4.01755 3.97046 0.0 
4.52386 4.04096 0.0 
9.91475 3.85114 0.0 
4.19209 4.05548 0.0 
6.42419 4.18044 0.0 
6.52781 1.51786 0.0 
4.05373 4.0206 0.0 
4.0593 4.0207 0.0 
3.22497 3.31961 0.0 
3.92901 4.29302 0.0 
4.11868 3.97589 0.0 
4.15516 3.94365 0.0 
8.91842 0.967714 0.0 
4.01683 3.96357 0.0 
8.32777 8 0.0 
4.06063 4.07844 0.0 
4.10358 3.98567 0.0 
13.1592 5.25121 0.0 
3.93277 3.96019 0.0 
5.06461 4.08435 0.0 
4.00437 3.9841 0.0 
4.55145 4.028 0.0 
4.0134 3.97877 0.0 
3.03193 6.72582 0.0 
4.48809 4.04182 0.0 
4.01079 3.9893 0.0 
2.46918 6.85642 0.0 
4.36156 4.08272 0.0 
2.48952 3.59766 0.0 
6.98692 2.68677 0.0 
3.58179 4.19848 0.0 
4.20001 4.03326 0.0 
4.84809 6.69312 0.0 
4.21639 4.03358 0.0 
4.55179 4.00354 0.0 
4.17588 4.04788 0.0 
11.5792 7.84461 0.0 
0.551344 1.2516 0.0 
4.02575 3.96118 0.0 
4.34924 4.71249 0.0 
6.49849 5.21743 0.0 
14 1.00091 0.0 
3.81904 4.22336 0.0 
12.9422 5.39238 0.0 
4.13971 3.98723 0.0 
4.55561 3.99981 0.0 
10.6153 7.62373 0.0 
11.8351 6.74811 0.0 
4.63883 4.00936 0.0 
4.1127 3.96242 0.0 
3.76693 3.80101 0.0 
4.15116 3.93854 0.0 
4.13176 4.07898 0.0 
10.2186 2.28825 0.0 
4.00323 4.0083 0.0 
4.38669 4.07987 0.0 
4.85957 4.01386 0.0 
4.90953 3.97583 0.0 
4.00279 3.99128 0.0 
4.05385 4.00986 0.0 
3.45166 4.08825 0.0 
0.348252 3.38746 0.0 
9.70352 1.23095 0.0 
6.32476 7.00417 0.0 
12.5996 5.63737 0.0 
4.64409 4.00438 0.0 
4.22492 3.96395 0.0 
6.64238 0.26606 0.0 
2.66719 0 0.0 
4.13487 3.98575 0.0 
4.19635 4.04727 0.0 
4.023 3.98731 0.0 
7.42828 2.99583 0.0 
12.1574 3.04219 0.0 
4.28866 4.04086 0.0 
4.21339 4.02989 0.0 
3.96806 4.01296 0.0 
11.0968 5.75296 0.0 
14 3.84943 0.0 
4.0121 4.01676 0.0 
4.38001 3.99612 0.0 
4.2904 3.92587 0.0 
4.21578 3.97354 0.0 
4.5467 4.03146 0.0 
4.1576 4.04457 0.0 
4.09065 3.95069 0.0 
4.53595 4.04072 0.0 
7.20657 5.05296 0.0 
3.05391 4.40989 0.0 
4.55408 3.9983 0.0 
13.6945 7.80328 0.0 
0.195775 6.68762 0.0 
4.53323 4.0151 0.0 
4.30033 6.55304 0.0 
0.198711 3.79297 0.0 
4.72583 0.194576 0.0 
4.14267 3.98592 0.0 
10.0323 4.54406 0.0 
5.30927 0.171783 0.0 
11.8702 0.212102 0.0 
3.77134 4.0081 0.0 
4.29643 3.98441 0.0 
4.73668 3.89169 0.0 
4.04877 3.98924 0.0 
3.96886 4.00175 0.0 
4.64006 3.99672 0.0 
11.2289 4.89185 0.0 
4.1283 4.05439 0.0 
4.24241 3.98915 0.0 
3.8467 3.90466 0.0 
4.82507 4.1106 0.0 
4.19061 4.0503 0.0 
3.84332 4.30643 0.0 
0.347962 1.57688 0.0 
14 3.14675 0.0 
5.0604 3.97687 0.0 
6.21656 4.34845 0.0 
7.78364 0 0.0 
6.32437 6.34013 0.0 
3.92693 3.99777 0.0 
5.62592 4.80931 0.0 
4.7383 3.87602 0.0 
3.90791 2.35452 0.0 
3.0632 3.50237 0.0 
1.64832 6.43608 0.0 
13.7604 0.5867 0.0 
4.15096 4.7928 0.0 
9.69215 3.27206 0.0 
4.48677 3.99573 0.0 
4.25841 3.96952 0.0 
4.03014 4.02376 0.0 
8.4574 2.322 0.0 
4.0104 4.03331 0.0 
4.0683 4.03381 0.0 
11.8107 0.651755 0.0 
4.04149 3.98321 0.0 
4.44403 3.99655 0.0 
3.15038 3.7252 0.0 
10.7133 0.399781 0.0 
4.12607 4.04071 0.0 
13.2903 7.45798 0.0 
6.99105 6.47424 0.0 
1.77695 6.77578 0.0 
4.05494 4.08699 0.0 
[...]
<PointData>
  <DataArray type = "Float64" Name="Vitesse" NumberOfComponents="3" format="ascii">
1 0 0.0 
1.00211 0 0.0 
1.00015 0 0.0 
1 0 0.0 
0.278301 -0.32978 0.0 
0.0696076 0.0583952 0.0 
0.0196403 0.000782799 0.0 
0.999969 -0.000135598 0.0 
0.07358 -0.0239669 0.0 
0.0608502 0.000508246 0.0 
1.00545 -0.000188223 0.0 
0.874213 -0.0943679 0.0 
1.00521 0.000711692 0.0 
0.08015 0.00672147 0.0 
0.774456 0.197505 0.0 
0.682692 0.189219 0.0 
0.884156 0.0401529 0.0 
1.00429 0.000313562 0.0 
0.543354 -0.0432896 0.0 
0.0121775 -0.00158444 0.0 
1.01042 0.0196495 0.0 
0.133236 -0.0159619 0.0 
0.959433 -0.0453524 0.0 
0 0 0.0 
0.371685 -0.0173035 0.0 
0.117953 -0.00180999 0.0 
1.00978 0.0066424 0.0 
1.00365 0 0.0 
1.03838 0.00969197 0.0 
0.00101959 4.74934e-05 0.0 
0.524395 0.0345153 0.0 
3.26203e-05 -1.8374e-06 0.0 
0.539449 0.0594274 0.0 
0.208754 -0.01953 0.0 
0.505947 -0.0405617 0.0 
1.04716 0.00393299 0.0 
1.01118 -0.00160782 0.0 
0.0428263 -0.00222424 0.0 
1 0 0.0 
0.80434 0.0187286 0.0 
0.803644 0.0259981 0.0 
1.00344 -0.000618061 0.0 
1.0074 -0.00428026 0.0 
0 0 0.0 
1.00372 -0.000256578 0.0 
0.97195 -0.0110652 0.0 
0.132241 -0.00992686 0.0 
1.00757 0.00077631 0.0 
0.943311 -0.0161071 0.0 
0 0 0.0 
0.95487 0.0860506 0.0 
0.584155 -0.00194836 0.0 
0.762507 0.104531 0.0 
1.01876 0.056383 0.0 
0 0 0.0 
1.0321 -0.097215 0.0 
0.925227 0.316077 0.0 
0.720412 0.309359 0.0 
0 0 0.0 
1.00563 0 0.0 
0.221684 0.00575721 0.0 
1.0137 0.00173458 0.0 
0.940503 -0.00852892 0.0 
0.857518 -0.0129701 0.0 
0 0 0.0 
0.971108 0.098303 0.0 
1.00001 2.17245e-05 0.0 
0 0 0.0 
0.931269 -0.0122568 0.0 
0.816578 -0.0534959 0.0 
0.015034 0.000631709 0.0 
0.882456 -0.03774 0.0 
1.00516 -0.00306007 0.0 
0 0 0.0 
0.948378 0.016653 0.0 
0.0129017 -0.000243936 0.0 
0.347617 0.0150974 0.0 
0.725693 0.0674087 0.0 
0 0 0.0 
0.105195 0.0288368 0.0 
0.859778 -0.13734 0.0 
0.391547 0.00485403 0.0 
0 0 0.0 
0 0 0.0 
0.981072 -0.0679847 0.0 
0.0606102 -0.00302871 0.0 
0.874399 -0.124786 0.0 
0.00700312 -0.0011411 0.0 
0.913183 0.323762 0.0 
0.603542 -0.047206 0.0 
0.750554 0.107064 0.0 
0.036951 0.000872168 0.0 
0.751167 0.131388 0.0 
0.686572 0.104859 0.0 
0.433365 0.13339 0.0 
0.744171 0.076914 0.0 
0.346118 0.0126825 0.0 
0.00402652 -0.000453924 0.0 
0.807759 -0.0157664 0.0 
0.315425 0.0121009 0.0 
0.691219 0.181359 0.0 
0.146919 -0.0183828 0.0 
0.29899 0.0140516 0.0 
0.997452 0.00677189 0.0 
1.00589 0 0.0 
1.00538 0.00051353 0.0 
0.0454489 -0.00475969 0.0 
0.999926 0.000701746 0.0 
0.886451 0.00929171 0.0 
0.342997 0.0104994 0.0 
0.187773 0.00497908 0.0 
0.381147 -0.0275065 0.0 
0.279697 -0.174403 0.0 
0.583577 0.0843304 0.0 
0.000176662 2.43314e-05 0.0 
1.00735 -4.10067e-05 0.0 
5.63729e-07 3.36168e-08 0.0 
0.931961 0.063577 0.0 
0.211468 0.00595235 0.0 
0.469891 0.0104748 0.0 
0.000645936 4.29501e-05 0.0 
0.0186784 0.000128688 0.0 
0.406464 -0.0154348 0.0 
1.00782 0.000316204 0.0 
1.00669 -0.000432199 0.0 
0.823654 -0.0633592 0.0 
0.0267434 0.00241211 0.0 
0.637448 0.00942111 0.0 
1.00086 -0.0034114 0.0 
0.22945 -0.0145203 0.0 
0.396389 -0.0358678 0.0 
1.00653 0.00425065 0.0 
0 0 0.0 
1.00029 0 0.0 
0 0 0.0 
1.00565 0 0.0 
0.529366 0.307946 0.0 
1.00656 -0.00242626 0.0 
0 0 0.0 
4.98715e-05 -6.43222e-06 0.0 
1.00998 -0.00293386 0.0 
0.00376489 -0.000182396 0.0 
0.0927452 -0.00939518 0.0 
1.00028 -0.000666403 0.0 
0.999563 0.00177078 0.0 
0.0112079 0.000783863 0.0 
1.00604 -4.33535e-05 0.0 
0.234692 -0.000750918 0.0 
0.634922 0.0340537 0.0 
3.8219e-05 -6.09131e-06 0.0 
1.00445 -0.00365781 0.0 
1.00474 -0.00028141 0.0 
1.00627 -0.000120977 0.0 
1.08839 0.0642979 0.0 
0.605073 0.0331311 0.0 
1.09666 0.0880423 0.0 
0.24499 -0.00592859 0.0 
0.0255044 -0.00437282 0.0 
1.00579 0.00103163 0.0 
0.963896 -0.325137 0.0 
0.0185167 0.00161238 0.0 
0.999562 -0.000999504 0.0 
0.0604367 -0.0120339 0.0 
0.979464 -0.0927277 0.0 
0.691877 -0.0128244 0.0 
1.03318 -0.000770415 0.0 
1.00679 -0.00233529 0.0 
1.00143 -0.000609375 0.0 
0.782951 -0.0546634 0.0 
1.25717e-252 -2.08563e-253 0.0 
0.460296 0.0137141 0.0 
0 0 0.0 
0.422144 0.0023281 0.0 
0.981815 -0.014957 0.0 
0.0318964 0.00148561 0.0 
0.0135926 -0.00228249 0.0 
1.00389 0.00121681 0.0 
0.379525 0.00108915 0.0 
0.910428 -0.0220521 0.0 
1.00686 0.00324236 0.0 
0.99996 0.000203593 0.0 
0.886804 0.0120221 0.0 
0.984039 0.00289829 0.0 
1.00115 0.00171386 0.0 
1.00841 0.000425024 0.0 
1.00946 -0.00231837 0.0 
0.752937 0.025575 0.0 
5.28044e-05 5.59179e-06 0.0 
1.00571 0.000677483 0.0 
0.199763 0.00451065 0.0 
1.0034 -0.0128639 0.0 
1.00722 -0.00169033 0.0 
0.212923 -0.0220117 0.0 
0.360957 -0.149533 0.0 
0.989343 0.000533311 0.0 
1.00706 0.00100477 0.0 
1.0004 -0.000359846 0.0 
1.00596 -0.000183299 0.0 
0.930848 -0.339003 0.0 
0.591792 -0.0566415 0.0 
0.020974 0.000431534 0.0 
1.00012 -0.00055263 0.0 
0 0 0.0 
0.0804637 0.045657 0.0 
0.895919 -0.385209 0.0 
0 0 0.0 
0.0255537 0.00125095 0.0 
0.298368 0.027268 0.0 
0.96192 0.273334 0.0 
1.00719 0.00069344 0.0 
1.00585 2.95851e-05 0.0 
0.031702 -0.000210347 0.0 
1.04502 0.211376 0.0 
0 0 0.0 
1.02104 0.000847884 0.0 
0.822264 0.0170837 0.0 
1.00504 0.000598902 0.0 
1.00888 0.000568087 0.0 
1.00229 0.00586641 0.0 
1.00243 -0.00156401 0.0 
0.959629 -0.0248008 0.0 
0.0196619 -0.00479495 0.0 
1.00265 -0.00085229 0.0 
0.950435 0.0267876 0.0 
0.0152056 -8.38888e-05 0.0 
1.00501 0.00179969 0.0 
0 0 0.0 
0.977424 0.252414 0.0 
0.951612 0.0616586 0.0 
1.00752 -0.00493468 0.0 
1.00342 0.000983496 0.0 
0.969507 -0.08193 0.0 
1.06491 0.0553009 0.0 
1.00115 0.0628073 0.0 
0.120698 -0.0172525 0.0 
1.00595 0.00771227 0.0 
1.00235 0.00119086 0.0 
0 0 0.0 
0.224291 0.00494141 0.0 
1.00041 0 0.0 
0.918376 -0.0044902 0.0 
1.0073 0.000549157 0.0 
0.887204 -0.218229 0.0 
0.182696 -0.0236529 0.0 
-1.59625e-285 -3.88067e-286 0.0 
1.00475 0 0.0 
1.08777 0.0541224 0.0 
0 0 0.0 
0.0775761 -0.0094178 0.0 
0.950191 0.0281623 0.0 
0 0 0.0 
0.0412495 0.00169989 0.0 
1.00702 -0.00198077 0.0 
0.816495 0.211214 0.0 
0.965863 -0.189436 0.0 
0.45998 0.00147326 0.0 
1.01032 0.00987815 0.0 
1.0069 -0.00160876 0.0 
1.00452 0.00216575 0.0 
1.00003 0.000334435 0.0 
1.0083 0.00316444 0.0 
0.0509956 -0.00121616 0.0 
1.0002 -0.000573382 0.0 
0.788683 -0.0522058 0.0 
0.804719 0.205399 0.0 
0.787299 0.217364 0.0 
0.0577882 -0.0182097 0.0 
0.00713933 0.000930239 0.0 
1.00125 -0.00404447 0.0 
0.0732868 -0.0289846 0.0 
0.675341 -0.0142462 0.0 
1.00243 -0.000922659 0.0 
1.0057 -0.00170048 0.0 
0.381869 0.0176208 0.0 
1.00272 0 0.0 
1.01011 0.0239289 0.0 
0 0 0.0 
0.000742207 3.89878e-05 0.0 
0.998493 -0.00208546 0.0 
0.305822 0.027563 0.0 
0.994152 -0.00367927 0.0 
1.00552 0 0.0 
0.950601 -0.258901 0.0 
1.00239 0.00250093 0.0 
0.00718854 0.000836578 0.0 
0.999263 -0.0272874 0.0 
0.0344164 0.0130086 0.0 
0.253432 -0.17552 0.0 
0.512369 -0.0371925 0.0 
1.00703 0.000118903 0.0 
0.0418318 -0.00388374 0.0 
1.00013 -0.000181406 0.0 
1.00059 0.000418511 0.0 
1 3.80386e-05 0.0 
0.154253 -0.0292847 0.0 
0.530949 0.0130542 0.0 
1.00565 -0.000394779 0.0 
1.00339 0.00164779 0.0 
0.998176 -0.000934523 0.0 
1.00545 -0.000223637 0.0 
1.00068 -0.000418648 0.0 
0.787924 0.0329041 0.0 
1.02125 -0.244685 0.0 
1.01196 0.00131233 0.0 
0.856107 0.0116281 0.0 
0.64335 -0.00046452 0.0 
1.02577 -0.00788244 0.0 
0.169772 -0.0201609 0.0 
0.747432 -0.0127893 0.0 
0.996991 0.0236075 0.0 
0.420806 -0.00712518 0.0 
0.999653 -0.00173515 0.0 
1.00228 0 0.0 
0 0 0.0 
1.00299 0.00352803 0.0 
1.00453 0.00152981 0.0 
-2.90353e-123 -6.12492e-124 0.0 
0.610425 0.0034406 0.0 
0 0 0.0 
0.878483 -0.367514 0.0 
1.00585 0.00118137 0.0 
0.412771 -0.0165728 0.0 
0.866697 -0.0505006 0.0 
0.89953 -0.208173 0.0 
0.863868 0.110305 0.0 
0.927627 0.0290832 0.0 
0 0 0.0 
6.54872e-09 1.20229e-09 0.0 
1.0075 -0.00143984 0.0 
0.223792 -0.0057538 0.0 
1.00425 -0.00063981 0.0 
0.995047 -0.30226 0.0 
0.259046 -0.0280258 0.0 
0.941418 0.00386603 0.0 
0.377745 0.0154187 0.0 
0.993476 -0.00396055 0.0 
1.00645 -0.000182098 0.0 
0 0 0.0 
0 0 0.0 
0.995385 -0.00731786 0.0 
0.992721 0.0587589 0.0 
0.31331 -0.00159955 0.0 
0.979376 -0.0465714 0.0 
1.00556 0.000287715 0.0 
1.00644 -0.280731 0.0 
1.00505 0 0.0 
1.03178 0.235644 0.0 
0.000263621 2.80148e-05 0.0 
0.999008 -0.0020558 0.0 
0.875644 -0.0771167 0.0 
0.820508 -0.0214491 0.0 
0.80518 -0.413591 0.0 
0.147862 -0.0237207 0.0 
0.892653 -0.319032 0.0 
1.00275 0.00233197 0.0 
0.237907 -0.024724 0.0 
0.312632 -0.112712 0.0 
1.0017 0.00170693 0.0 
0.821957 -0.0217385 0.0 
0.99646 -0.00109562 0.0 
1.0074 0.000432615 0.0 
0.977561 0.0158288 0.0 
0 0 0.0 
1.00664 0.00130759 0.0 
0 0 0.0 
0.00291122 -0.000634842 0.0 
0.150638 0.00664957 0.0 
1.0022 -0.00017281 0.0 
1.00004 -0.000234152 0.0 
1.03656 -0.252805 0.0 
1.02502 0.0134261 0.0 
1.00819 -0.00199542 0.0 
1.00204 0.000817623 0.0 
0.970478 0.0433627 0.0 
0.999393 -0.00226381 0.0 
4.62665e-06 4.94826e-07 0.0 
7.09164e-06 -7.84118e-08 0.0 
1.00329 -0.000399215 0.0 
1.00182 -0.00144256 0.0 
0.148213 -0.0022106 0.0 
0.740298 -0.0368671 0.0 
0.970527 -0.0278193 0.0 
1.0291 -0.0559765 0.0 
1.07116 0.153683 0.0 
1.00548 0.00128336 0.0 
0.078377 0.0811973 0.0 
0.771533 -0.028283 0.0 
0.348269 -0.00496384 0.0 
0.503814 0.0140267 0.0 
0.499989 -0.352586 0.0 
0 0 0.0 
0.980837 0.00550805 0.0 
0.999969 -3.90451e-05 0.0 
1.00535 0.0004987 0.0 
1.0064 -0.000189636 0.0 
1.0001 -0.0024596 0.0 
0.16237 0.00411091 0.0 
0.532374 0.00261005 0.0 
1.00569 -4.4586e-05 0.0 
1.00152 0 0.0 
0.0229253 0.000139144 0.0 
0.104245 0.00159353 0.0 
0.153608 -0.0395461 0.0 
1.0074 0.000707452 0.0 
1.00384 0.00301321 0.0 
0.0127794 -0.000158162 0.0 
0 0 0.0 
0.713632 0.0218784 0.0 
1.00299 -0.00306962 0.0 
0.995526 0.00365312 0.0 
0.283304 0.170239 0.0 
8.4976e-05 7.98681e-06 0.0 
0.994655 -0.0164334 0.0 
0.329538 0.00563221 0.0 
0.175882 -0.024853 0.0 
0.0676063 0.00477827 0.0 
1.02709 -0.101179 0.0 
0.266123 -0.0298011 0.0 
1.0075 -0.00190955 0.0 
0.993607 0.00668449 0.0 
0.0206517 0.000630083 0.0 
1.0003 -0.000111413 0.0 
1 0.000128642 0.0 
0.0376134 -0.00638432 0.0 
1.00608 0.0023612 0.0 
0.999992 2.90787e-05 0.0 
1.00442 -0.000235327 0.0 
0.02505 0.00151381 0.0 
1.00761 -0.00485252 0.0 
1.00502 -0.000149846 0.0 
1.00387 0.000162153 0.0 
0.944595 0.00102287 0.0 
0.135441 0.0038154 0.0 
0.996184 0.0233517 0.0 
0 0 0.0 
0.706751 -0.0459349 0.0 
0.190625 0.0129746 0.0 
1.00271 -0.00546968 0.0 
0.578544 0.0713224 0.0 
0.0258431 0.00132685 0.0 
0.942457 -0.0379406 0.0 
0.944955 -0.033586 0.0 
0.209915 0.00763232 0.0 
0.984953 0.0443728 0.0 
1.00001 -0.000169279 0.0 
1.00089 0.00344444 0.0 
0.544001 0.010056 0.0 
1.00798 -0.00374265 0.0 
1.00563 0 0.0 
1.00719 -0.000547806 0.0 
0.844676 -0.0237214 0.0 
1.011 -0.00398438 0.0 
1.01531 0.0208229 0.0 
1.00449 -0.00565314 0.0 
0.993699 -0.0046735 0.0 
1.00057 0.00144093 0.0 
1.00228 0.000488872 0.0 
1.01707 0.0173289 0.0 
1.00667 0.00207927 0.0 
0.0372399 0.00134615 0.0 
0.407139 0.00586374 0.0 
0.182417 0.0616889 0.0 
1.00659 0.000757179 0.0 
0.784996 0.342718 0.0 
0.121685 0.0283967 0.0 
1.00395 0.000497346 0.0 
0.233496 -0.0270312 0.0 
0.0099128 0.000859309 0.0 
0.990563 -0.00338766 0.0 
1.00467 0.000231407 0.0 
1.87044e-83 9.82726e-85 0.0 
1.00052 -0.00039051 0.0 
1.00656 -0.00072712 0.0 
1.00078 0.00125538 0.0 
1.01905 0.220564 0.0 
0 0 0.0 
1.00006 -0.000443359 0.0 
1.00571 -3.1876e-07 0.0 
1.00828 0.00087764 0.0 
0.00254668 -0.000528563 0.0 
1.0013 0.00540025 0.0 
1.00379 0.00289201 0.0 
1.00045 -0.0013085 0.0 
1.00671 0.000939294 0.0 
1.00717 0.00164969 0.0 
0.251401 -0.0480197 0.0 
1.00573 -6.19141e-06 0.0 
1.00718 -0.00131779 0.0 
2.84158e-05 2.34862e-07 0.0 
1.00443 -0.00130921 0.0 
0.999976 -0.00100922 0.0 
0.00759696 -0.00144428 0.0 
0.0645454 -0.00212006 0.0 
1.00652 0.00162516 0.0 
1.00822 -0.00234936 0.0 
0.710322 -0.00581479 0.0 
0.0161227 0.00106826 0.0 
0.784176 -0.0112182 0.0 
0.803051 0.319079 0.0 
0.22785 0.0227689 0.0 
1.00816 0.00490018 0.0 
0.998345 -0.00351019 0.0 
0.0239447 0.00105736 0.0 
1.00737 -0.0017043 0.0 
0.919869 -0.0251239 0.0 
1.57559e-05 1.7106e-07 0.0 
0.892458 -0.0517871 0.0 
0.903039 -0.00399902 0.0 
0.0200818 -0.0029451 0.0 
1.00107 -0.000470301 0.0 
1.00106 0.20578 0.0 
0.692557 0.000948787 0.0 
1.00011 0.000801329 0.0 
1.0091 -0.00342519 0.0 
0.995305 -0.00158863 0.0 
1.0022 0.000776636 0.0 
0 0 0.0 
0.0967474 0.00239324 0.0 
1.00533 -0.000685757 0.0 
0.962318 -0.283728 0.0 
0.453019 -0.307364 0.0 
0.924852 -0.305646 0.0 
0.997316 -0.000789831 0.0 
0.999357 0.000719122 0.0 
1.00659 0.000602802 0.0 
0 0 0.0 
1.00002 -0.000183482 0.0 
0.130645 -0.0175051 0.0 
0.078756 -0.00154024 0.0 
1.00524 0.00220304 0.0 
0.999498 -5.61787e-05 0.0 
1.00201 0.00588796 0.0 
1.12211 0.081988 0.0 
1.00712 0.000767082 0.0 
1.00024 0.000356223 0.0 
0.998562 -0.00278375 0.0 
1.00166 0.000228587 0.0 
1.00436 -0.000419264 0.0 
1.01013 0.00415449 0.0 
1.00807 0.00549807 0.0 
1.01819 0.0100379 0.0 
1.00589 0.00175663 0.0 
0.635977 0.014522 0.0 
1.28885e-158 1.76412e-159 0.0 
0.705172 0.0906667 0.0 
0 0 0.0 
1.00142 0.00294571 0.0 
1.03032 0.012815 0.0 
0.0865125 0.00198436 0.0 
1.0045 0 0.0 
1.00859 -0.00447948 0.0 
0.300075 0.144501 0.0 
1.00556 0.000669152 0.0 
1.00889 0.00201003 0.0 
0.0489868 -0.00323398 0.0 
1.00003 0.000303927 0.0 
1.00549 0.00147833 0.0 
1.00697 -0.000572544 0.0 
1.03067 -0.025897 0.0 
1.0717 0.076931 0.0 
1.00816 -0.00713855 0.0 
1.00533 -0.000158159 0.0 
0.0406705 -0.000697308 0.0 
0.0109224 0.000835323 0.0 
0.013971 -0.00243958 0.0 
0.0668738 0.00164056 0.0 
0.0447208 0.00184339 0.0 
0.38439 -0.0108421 0.0 
0.815503 -0.0265793 0.0 
0.961822 -0.0447109 0.0 
0.214291 0.0683355 0.0 
0.0142165 0.000942209 0.0 
0.959855 -0.00362574 0.0 
1.00714 0.000637977 0.0 
0 0 0.0 
0.771298 0.0207273 0.0 
1.00555 0.00095645 0.0 
7.27603e-160 -1.97087e-160 0.0 
0.999977 7.06135e-06 0.0 
0.332132 -0.00587789 0.0 
1.00412 0.000280011 0.0 
1.00422 0.000659218 0.0 
0.755293 0.0118497 0.0 
0.997498 -0.00126156 0.0 
0.203729 0.0173608 0.0 
1.00021 -0.000712277 0.0 
0.0148829 0.000937364 0.0 
1.0585 0.225712 0.0 
0.284239 -0.0409276 0.0 
1.00393 0.000250227 0.0 
0.962399 -0.0565724 0.0 
1.00654 0.000836495 0.0 
0.24624 -0.0108621 0.0 
0.695969 -0.0052375 0.0 
1.00869 -0.00155285 0.0 
0.0199452 0.0014259 0.0 
0.25611 0.0225896 0.0 
0.868986 -0.0164339 0.0 
0.86239 0.0304485 0.0 
1.00618 -0.00109209 0.0 
5.5095e-05 4.03926e-06 0.0 
0.0307321 -0.0168338 0.0 
1.01309 -0.00564285 0.0 
1 0.000231855 0.0 
0.315895 0.0442229 0.0 
1.00312 0 0.0 
1.00437 0.00227825 0.0 
1.00034 -0.0061342 0.0 
0.990819 0.00423465 0.0 
1.5945e-46 -1.82481e-47 0.0 
1.00743 0.000545188 0.0 
1.00593 -0.0450027 0.0 
1.0073 0.00175603 0.0 
0.999702 0.00505092 0.0 
1.0031 0.0104365 0.0 
1.00503 -0.00245533 0.0 
0 0 0.0 
0.998897 0.00447487 0.0 
1.00243 0.00212219 0.0 
0.0592875 0.00257275 0.0 
1.00173 -0.000503527 0.0 
1.00928 -0.00168008 0.0 
0.0144312 0.000939201 0.0 
0.00266424 0.000233612 0.0 
1.00583 -8.7498e-05 0.0 
1.00467 -0.00281327 0.0 
1.00447 -0.000818026 0.0 
0.64464 -0.0271174 0.0 
0.9997 -0.00123982 0.0 
0.812883 0.0141058 0.0 
0.0141955 -0.00221943 0.0 
0.0892234 0.00130282 0.0 
0.977545 0.00188819 0.0 
0.991777 0.00572111 0.0 
1.00837 0.00142412 0.0 
0.7233 -0.0308661 0.0 
0.011464 -0.00195363 0.0 
1 -0.000950156 0.0 
0.834616 0.117543 0.0 
0.0112428 0.00106564 0.0 
1.00514 0.00180199 0.0 
0.0184517 0.000375379 0.0 
1.00405 -0.00373456 0.0 
1.0056 -0.00148941 0.0 
0.955559 0.0281522 0.0 
0.603684 0.00208004 0.0 
1.00735 -0.000904737 0.0 
1.0062 0.00108556 0.0 
1.00079 0 0.0 
0.580634 -0.0485507 0.0 
1.00471 0.00207233 0.0 
0.407909 0.0266806 0.0 
1.12555 0.0852558 0.0 
1.10655 0.0971493 0.0 
1.00609 -0.000381323 0.0 
-1.35929e-169 7.71768e-170 0.0 
0.0456889 0.00227917 0.0 
1.00001 -0.000259811 0.0 
0.0331193 -0.00405557 0.0 
0.882654 0.241801 0.0 
0.86156 0.0313382 0.0 
1.00511 -0.00194624 0.0 
1.00761 0.000584861 0.0 
1.00874 0.000104471 0.0 
0.999121 0.000425073 0.0 
0.906146 -0.0266462 0.0 
1.0401 -0.00265201 0.0 
0.999795 -0.000809731 0.0 
0.123232 0.0310506 0.0 
1.0067 0.00103161 0.0 
0.402188 0.00502007 0.0 
0.027455 0.000773141 0.0 
0.432031 0.00787571 0.0 
0 0 0.0 
0.993936 -0.00137713 0.0 
1.00533 -0.00437769 0.0 
1.00576 8.98989e-06 0.0 
1.00153 -0.00281706 0.0 
1.00573 -0.00016661 0.0 
0.999618 -0.00154792 0.0 
1.00188 -0.00227532 0.0 
0.181748 0.000359875 0.0 
1.00534 0.00140037 0.0 
0 0 0.0 
1.00242 0.00177907 0.0 
1.00219 -0.00243262 0.0 
0.388783 0.00546992 0.0 
1.00356 -0.000425815 0.0 
0.883515 0.0252182 0.0 
1.00104 -0.00132545 0.0 
0.123464 0.0731682 0.0 
0.0408649 -0.00580325 0.0 
1.00113 -0.00123409 0.0 
0.183647 -0.0201855 0.0 
0.893434 0.0140415 0.0 
0 0 0.0 
1.00008 -0.000690537 0.0 
0.0505362 0.00156391 0.0 
1.00313 -0.000598155 0.0 
0.927618 -0.164098 0.0 
0.730267 -0.0166604 0.0 
0.816483 0.126898 0.0 
-5.97017e-285 -6.55004e-286 0.0 
0.273881 0.00432269 0.0 
1 0 0.0 
0.417574 0.00198148 0.0 
0.0195466 -0.00304434 0.0 
1.00599 -0.000259082 0.0 
0.434253 -0.000969328 0.0 
1.00794 -0.000242963 0.0 
1.00128 -0.00662471 0.0 
0.00777861 0.000495119 0.0 
1.0058 -0.000452564 0.0 
0.167692 0.0510362 0.0 
1.00413 -0.00250735 0.0 
1.00749 0.00127377 0.0 
1.00086 0.0168705 0.0 
1.00255 -0.000431975 0.0 
5.67525e-88 -3.64877e-89 0.0 
1.00046 -0.00140144 0.0 
1.00662 -0.000856326 0.0 
0.266394 -0.0109802 0.0 
1.01112 -0.00082139 0.0 
0.000128912 5.16511e-06 0.0 
0.333956 -0.00158892 0.0 
0.354036 -0.0017663 0.0 
1.00501 0.000402719 0.0 
0.0364386 -0.00714625 0.0 
1.00674 0.000327894 0.0 
0.788013 0.141123 0.0 
1.00334 -0.00330768 0.0 
1.00584 -0.000581405 0.0 
1.00577 0.000434931 0.0 
1.0043 -0.00296591 0.0 
1.00725 0.000453223 0.0 
1.00007 -0.000222646 0.0 
0.346679 0.00100188 0.0 
0.941778 0.267909 0.0 
1.0053 0.000384147 0.0 
0.794432 -0.00127881 0.0 
0.999832 -0.000284661 0.0 
0.997673 0.00434513 0.0 
0.992556 -0.00321128 0.0 
1.00001 -0.000133201 0.0 
0.0609438 -0.0131757 0.0 
1.00158 0.00243895 0.0 
0.406438 -0.0978972 0.0 
0.913596 -0.016004 0.0 
1.00321 0.00219884 0.0 
1.00515 0.000714281 0.0 
0.705947 0.0132443 0.0 
1.00591 -0.000604076 0.0 
1.04071 0.023847 0.0 
0.835774 -0.0515443 0.0 
1 -0.000254154 0.0 
0.323033 -0.234647 0.0 
0.390116 0.0864567 0.0 
1.00755 -0.00251388 0.0 
0 0 0.0 
1.0024 0.00980634 0.0 
1.00649 -0.000931213 0.0 
0.0313282 -0.00471863 0.0 
0.562093 -0.0357225 0.0 
0.997495 0.0123332 0.0 
0.0469358 -0.00260198 0.0 
1.05617 0.0974007 0.0 
0 0 0.0 
-1.31004e-285 -1.29205e-286 0.0 
0.49367 -0.0224397 0.0 
0.236123 0.00416793 0.0 
0 0 0.0 
1.01243 0.0261377 0.0 
1.00082 -0.00177047 0.0 
0.997604 0.0016581 0.0 
0.886864 -0.0210767 0.0 
0.886098 -0.0553857 0.0 
0.0151838 -0.0280156 0.0 
1.00425 0.00050823 0.0 
0.00318161 -0.00060872 0.0 
0.999807 -0.00300839 0.0 
0.0495223 0.00293653 0.0 
0.501799 -0.0127919 0.0 
0.914955 -0.373035 0.0 
3.35379e-111 -1.03035e-111 0.0 
1.00013 -0.00290169 0.0 
0.109332 -0.0155384 0.0 
1.00554 -0.000301049 0.0 
1.02321 0.0826512 0.0 
1.00397 0.00281474 0.0 
1.08008 -0.1348 0.0 
0.186461 -0.0241737 0.0 
0.403911 0.0315026 0.0 
1.01333 0.00361205 0.0 
1.0029 -0.000722506 0.0 
0.999762 0.00185103 0.0 
0.0505551 0.00200199 0.0 
1.00352 0.000127641 0.0 
0.398322 0.0198302 0.0 
1.00547 0 0.0 
0.88392 -0.0206779 0.0 
0.99988 0.00097619 0.0 
1.01346 -0.00623101 0.0 
1.00288 0.00234075 0.0 
1.0054 0.00179136 0.0 
0.979359 0.139841 0.0 
1.1169 0.0439327 0.0 
7.89283e-71 1.75094e-71 0.0 
0.911155 -0.0562514 0.0 
0.301 0.00832196 0.0 
0.982848 0.0052229 0.0 
1.00664 -0.00137443 0.0 
0.986702 0.00254647 0.0 
0.00992301 -0.00117764 0.0 
0.0132971 0.000626075 0.0 
1.00429 -0.00236703 0.0 
1.01174 -0.0134823 0.0 
0.989234 0.000122198 0.0 
0 0 0.0 
1.0135 -0.000133826 0.0 
1.00331 0 0.0 
1.0052 0.000338816 0.0 
0.914794 0.0302523 0.0 
1.00567 7.20154e-05 0.0 
0.656674 0.0110541 0.0 
0.61243 -0.431376 0.0 
1.00575 -0.000617662 0.0 
0.0259597 0.00120576 0.0 
1.00111 -0.00549671 0.0 
1.00124 -0.00225382 0.0 
1.00574 7.32728e-05 0.0 
0.047106 -0.00803516 0.0 
1.06533 0.0172935 0.0 
0.0209377 0.00104055 0.0 
1.00706 -0.000654313 0.0 
1.00379 -0.00171864 0.0 
0.974289 -0.0229551 0.0 
0.998034 0.00553435 0.0 