<VTKFile type="UnstructuredGrid" version="0.1" byte_order="LittleEndian">
  <UnstructuredGrid>
    <Piece NumberOfPoints="14270" NumberOfCells="28351">
      <Points>
        <DataArray type = "Float64" NumberOfComponents="3" format="ascii">
0 0 0.0 
14 0 0.0 
14 8 0.0 
0 8 0.0 
4.45859 4.06919 0.0 
4.08465 4.04136 0.0 
4.5137 4.01799 0.0 
4.4542 4.05047 0.0 
0.553728 5.13135 0.0 
4.69846 3.99389 0.0 
4.07288 4.40729 0.0 
4.43965 4.03278 0.0 
4.53996 3.98587 0.0 
4.76965 4.10641 0.0 
4.07057 3.9639 0.0 
4.61434 4.02203 0.0 
4.03764 4.01685 0.0 
3.98741 4.04054 0.0 
3.98768 4.02653 0.0 
4.26704 3.98887 0.0 
4.33634 3.99219 0.0 
0.759552 8 0.0 
3.98249 4.03781 0.0 
5.38732 3.64389 0.0 
10.7761 1.19391 0.0 
4.09469 4.02489 0.0 
0 4.59931 0.0 
4.04374 4.01021 0.0 
4.61584 4.00791 0.0 
4.66304 4.10916 0.0 
12.1265 0 0.0 
4.08696 4.0382 0.0 
11.1768 0.152548 0.0 
4.39263 4.04023 0.0 
5.08251 4.02527 0.0 
4.54725 3.99865 0.0 
4.13489 4.05432 0.0 
13.7293 8 0.0 
4.5466 3.9981 0.0 
4.41583 4.03401 0.0 
5.15392 3.92212 0.0 
5.12669 3.98186 0.0 
1.43739 8 0.0 
4.48498 4.03603 0.0 
0 3.36284 0.0 
3.9738 4.06354 0.0 
4.37919 4.04132 0.0 
4.08356 4.01938 0.0 
4.50284 4.0292 0.0 
4.00476 3.98223 0.0 
4.0273 4.01367 0.0 
4.07986 3.98537 0.0 
4.10517 4.00493 0.0 
0.373261 2.90799 0.0 
4.01695 3.99047 0.0 
4.09188 4.01089 0.0 
5.23138 4.04348 0.0 
4.56162 4.08543 0.0 
4.88121 3.92116 0.0 
4.07283 3.98737 0.0 
4.12626 4.04369 0.0 
4.75193 4.02668 0.0 
4.16457 4.03157 0.0 
4.41251 4.03589 0.0 
4.80748 4.03134 0.0 
4.33339 3.99441 0.0 
4.62303 4.01441 0.0 
4.03444 4.04627 0.0 
4.00693 3.97995 0.0 
4.29891 4.03813 0.0 
4.02005 3.99731 0.0 
5.23503 8 0.0 
4.71605 3.98474 0.0 
4.2742 3.96336 0.0 
4.41045 3.9223 0.0 
4.17377 3.93904 0.0 
4.01687 4.01882 0.0 
4.31259 4.54796 0.0 
4.92987 4.00502 0.0 
4.23833 3.96605 0.0 
4.89169 4.02624 0.0 
4.20602 3.96167 0.0 
5.03805 4.11938 0.0 
4.15754 3.98396 0.0 
4.09052 3.94594 0.0 
3.96568 3.95504 0.0 
4.42567 4.04933 0.0 
4.12226 4.05712 0.0 
4.43194 4.05075 0.0 
4.12601 4.05962 0.0 
4.72736 4.0008 0.0 
4.36887 3.96919 0.0 
0.442711 2.6928 0.0 
4.20412 3.97451 0.0 
4.04672 4.0202 0.0 
4.24149 3.97604 0.0 
4.54602 4.02367 0.0 
4.54772 3.97659 0.0 
3.96947 4.02134 0.0 
4.16687 4.04478 0.0 
3.98227 4.03242 0.0 
4.40632 4.04552 0.0 
4.16351 4.01124 0.0 
3.96297 3.96024 0.0 
4.16983 4.04522 0.0 
4.15932 4.03394 0.0 
4.94279 3.90004 0.0 
4.29533 4.03904 0.0 
5.37929 3.9679 0.0 
4.17594 4.02288 0.0 
4.12788 3.98666 0.0 
4.53942 7.43326 0.0 
4.02972 4.04518 0.0 
4.34365 3.9937 0.0 
4.35467 3.96904 0.0 
4.2103 3.97042 0.0 
11.7742 3.89402 0.0 
3.97141 4.03046 0.0 
4.51483 4.02634 0.0 
3.97561 4.03322 0.0 
5.02704 4.04313 0.0 
3.97816 4.02179 0.0 
4.04633 4.03304 0.0 
3.96767 4.02507 0.0 
4.13184 4.05958 0.0 
4.54024 3.97584 0.0 
3.92179 4.00622 0.0 
3.95738 3.95409 0.0 
4.02036 4.01996 0.0 
4.54238 3.97814 0.0 
4.01644 3.98869 0.0 
4.54991 3.98013 0.0 
4.14488 4.04099 0.0 
6.72566 4.89397 0.0 
4.09732 3.96431 0.0 
4.9185 4.07081 0.0 
4.73521 7.52615 0.0 
4.23428 3.97479 0.0 
4.27215 4.05048 0.0 
4.95317 3.93216 0.0 
5.44254 3.90216 0.0 
13.5688 6.73405 0.0 
4.21262 3.97821 0.0 
4.18431 4.00878 0.0 
4.25227 3.97302 0.0 
4.38002 3.99181 0.0 
5.0584 4.0154 0.0 
4.06415 3.97984 0.0 
4.1749 4.0122 0.0 
4.14428 4.02484 0.0 
4.42944 4.00923 0.0 
3.98357 1.65704 0.0 
4.51739 4.01426 0.0 
4.11582 4.05251 0.0 
4.17017 4.00727 0.0 
4.238 3.97448 0.0 
4.18692 4.01736 0.0 
4.19242 4.01735 0.0 
4.33176 4.0388 0.0 
6.50541 6.65271 0.0 
1.89436 0 0.0 
8.94226 3.81732 0.0 
4.20477 3.96881 0.0 
4.70697 4.07023 0.0 
8.08947 8 0.0 
4.42041 3.99433 0.0 
6.37297 2.73989 0.0 
12.6474 3.41509 0.0 
4.22036 4.08559 0.0 
4.55058 3.91776 0.0 
4.41445 4.03052 0.0 
4.10067 3.96067 0.0 
4.5502 4.0229 0.0 
6.67367 0 0.0 
12.1753 3.5089 0.0 
4.43503 4.04601 0.0 
4.11667 4.03979 0.0 
3.97829 4.08047 0.0 
1.06372 0.452886 0.0 
4.47548 3.97721 0.0 
4.81144 4.07765 0.0 
8.81775 7.70223 0.0 
5.11387 4.07914 0.0 
10.4724 0 0.0 
4.09132 3.9621 0.0 
4.161 3.98967 0.0 
4.16985 4.01586 0.0 
4.02338 3.12497 0.0 
4.31162 4.04203 0.0 
6.22735 7.50315 0.0 
4.21777 4.01721 0.0 
4.04659 3.9802 0.0 
4.37592 3.995 0.0 
4.15122 4.02399 0.0 
4.38773 4.04376 0.0 
8.95603 7.57132 0.0 
4.41729 4.01036 0.0 
4.4281 4.037 0.0 
4.34609 4.01334 0.0 
5.24597 4.02724 0.0 
11.5703 4.18823 0.0 
4.10209 3.95225 0.0 
5.01262 3.99734 0.0 
4.14268 4.01335 0.0 
4.178 4.03035 0.0 
4.48188 3.98033 0.0 
4.24114 3.97089 0.0 
3.98121 4.01031 0.0 
9.16164 6.19834 0.0 
4.15937 3.98089 0.0 
4.17027 4.04684 0.0 
4.17199 4.02441 0.0 
4.05257 3.99186 0.0 
4.54778 4.01674 0.0 
11.3933 4.07496 0.0 
4.06799 4.0144 0.0 
4.55173 4.02504 0.0 
4.21838 3.97478 0.0 
4.19211 4.09334 0.0 
4.11667 4.02693 0.0 
4.26563 4.0064 0.0 
4.09428 3.96323 0.0 
4.00933 4.01977 0.0 
4.55781 1.73176 0.0 
4.21492 3.98872 0.0 
4.95296 4.00416 0.0 
4.30693 3.97975 0.0 
4.50878 4.01717 0.0 
4.11514 3.94876 0.0 
0.150705 5.06385 0.0 
3.97586 4.01385 0.0 
12.0372 1.49526 0.0 
4.08846 3.9545 0.0 
4.83227 4.09825 0.0 
10.4619 3.53679 0.0 
4.22102 4.0956 0.0 
3.99603 4.04717 0.0 
4.68192 3.98369 0.0 
4.25592 4.03923 0.0 
4.18629 3.9809 0.0 
4.06736 3.97365 0.0 
6.38052 3.13775 0.0 
5.9291 5.15993 0.0 
4.22922 4.08626 0.0 
4.197 4.04365 0.0 
4.52392 3.99712 0.0 
9.4176 1.73395 0.0 
7.39147 0.561245 0.0 
4.04602 3.99526 0.0 
13.4533 0.706029 0.0 
4.11162 4.01072 0.0 
4.01309 3.99418 0.0 
4.09693 3.98536 0.0 
4.23862 4.08984 0.0 
8.35832 2.9685 0.0 
13.4699 7.45697 0.0 
4.11784 4.01645 0.0 
4.20567 4.01686 0.0 
4.20591 3.97957 0.0 
4.01229 3.97705 0.0 
4.06076 3.97364 0.0 
4.00116 4.15568 0.0 
5.22849 3.80697 0.0 
4.46738 4.02278 0.0 
4.06905 3.97541 0.0 
4.3022 3.98134 0.0 
4.65388 6.82503 0.0 
4.09799 4.03388 0.0 
4.50731 4.01265 0.0 
3.99575 4.05296 0.0 
4.03377 4.02419 0.0 
4.00577 3.97873 0.0 
4.17497 4.04337 0.0 
4.54235 4.00487 0.0 
4.47154 4.03486 0.0 
4.46825 4.0333 0.0 
7.62224 2.88267 0.0 
7.22419 0.703495 0.0 
4.12044 4.04145 0.0 
4.22747 3.9748 0.0 
4.3038 4.02492 0.0 
4.15645 3.93694 0.0 
4.18499 3.97033 0.0 
4.5349 4.00694 0.0 
4.16512 4.04579 0.0 
4.13823 3.98687 0.0 
3.92248 3.93744 0.0 
4.4687 4.03784 0.0 
5.85409 3.09344 0.0 
4.31158 4.03056 0.0 
3.04282 2.00133 0.0 
4.22372 4.48176 0.0 
4.30822 3.97602 0.0 
4.47279 4.03705 0.0 
2.15324 3.69484 0.0 
4.45588 3.99522 0.0 
4.46515 4.03963 0.0 
4.1124 4.00365 0.0 
4.06521 4.0002 0.0 
4.34324 3.99246 0.0 
3.62428 3.90346 0.0 
4.80351 3.9973 0.0 
4.07756 4.01333 0.0 
4.11575 4.03408 0.0 
1.80486 6.27204 0.0 
4.51702 4.00878 0.0 
4.42133 4.01358 0.0 
12.5015 1.14918 0.0 
1.36145 1.7847 0.0 
4.23052 4.09368 0.0 
4.1885 3.95905 0.0 
5.5557 3.79917 0.0 
4.19134 3.97473 0.0 
4.18997 3.98044 0.0 
4.14082 3.9845 0.0 
10.4115 5.08424 0.0 
4.29661 3.97485 0.0 
4.1921 4.08583 0.0 
4.61932 3.91514 0.0 
4.47343 4.04571 0.0 
4.31337 4.02589 0.0 
3.42703 1.35638 0.0 
4.23092 3.94807 0.0 
4.12372 4.49125 0.0 
4.10507 4.03277 0.0 
4.50166 4.0129 0.0 
4.01084 3.97814 0.0 
4.30288 3.97473 0.0 
4.06271 4.06705 0.0 
4.2355 4.09935 0.0 
2.40634 0.22864 0.0 
4.13897 4.04417 0.0 
5.1966 3.95864 0.0 
5.1562 4.12616 0.0 
4.01786 3.95969 0.0 
2.09456 4.12139 0.0 
8.82333 8 0.0 
5.19619 4.15099 0.0 
4.67142 3.9997 0.0 
4.18106 3.97494 0.0 
4.20328 4.07925 0.0 
4.24734 3.99004 0.0 
0.417479 6.31883 0.0 
4.18213 3.97198 0.0 
0.89907 3.25402 0.0 
4.01908 4.0196 0.0 
4.39895 4.0289 0.0 
4.68954 4.01567 0.0 
4.05938 3.64651 0.0 
5.33795 4.01351 0.0 
4.20811 4.08324 0.0 
14 0.758441 0.0 
3.99155 4.04247 0.0 
3.99093 4.05263 0.0 
3.98858 4.04648 0.0 
3.97296 4.00674 0.0 
11.3714 7.19716 0.0 
4.57571 4.01155 0.0 
9.192 5.81999 0.0 
4.34607 3.99266 0.0 
4.19561 4.08143 0.0 
4.50353 4.02379 0.0 
4.5044 4.01853 0.0 
3.9508 3.9557 0.0 
11.016 2.69137 0.0 
2.30378 3.03595 0.0 
5.52653 4.14085 0.0 
4.09669 3.9535 0.0 
4.10852 4.02505 0.0 
7.40997 8 0.0 
9.78287 8 0.0 
2.86414 6.59491 0.0 
4.50624 4.02709 0.0 
4.24588 4.0371 0.0 
4.4284 4.01187 0.0 
4.14038 4.03689 0.0 
10.358 3.36064 0.0 
4.39749 4.02788 0.0 
4.41714 4.006 0.0 
4.03548 4.33333 0.0 
6.78993 2.13526 0.0 
6.95076 5.01827 0.0 
0.846754 0.565038 0.0 
6.75058 7.51475 0.0 
4.49903 4.02087 0.0 
4.01026 3.94348 0.0 
4.36394 4.01417 0.0 
7.59973 7.22298 0.0 
12.6277 1.80732 0.0 
14 4.58149 0.0 
5.85073 0.410811 0.0 
13.0902 7.46595 0.0 
4.5135 3.98044 0.0 
4.53149 4.01117 0.0 
4.02912 3.96643 0.0 
3.9878 3.95947 0.0 
4.5031 4.02642 0.0 
5.09066 3.9758 0.0 
4.51303 3.98607 0.0 
4.52101 3.97841 0.0 
4.18826 4.05415 0.0 
4.0634 4.04731 0.0 
3.96066 4.00697 0.0 
4.37999 3.98827 0.0 
4.11803 3.95572 0.0 
4.38589 3.99763 0.0 
13.1661 5.68046 0.0 
13.7895 0 0.0 
4.06416 4.05586 0.0 
4.51659 3.98952 0.0 
4.18762 3.94498 0.0 
11.4357 2.10385 0.0 
4.34122 3.99152 0.0 
4.52633 3.98177 0.0 
4.00791 4.0033 0.0 
4.0088 3.9805 0.0 
9.75515 2.36072 0.0 
4.2272 3.98878 0.0 
4.59703 3.94199 0.0 
4.02947 3.97325 0.0 
4.12165 4.04266 0.0 
1.21142 8 0.0 
5.27462 4.29855 0.0 
4.13917 3.99509 0.0 
4.01129 4.00596 0.0 
4.38809 4.01643 0.0 
4.11122 4.02397 0.0 
4.02308 3.97335 0.0 
4.10847 4.02856 0.0 
4.01755 3.97046 0.0 
4.67996 4.1321 0.0 
4.09015 4.03064 0.0 
4.52077 4.01568 0.0 
4.01835 3.98987 0.0 
4.08644 3.996 0.0 
4.39139 3.97735 0.0 
4.50252 3.99513 0.0 
5.26641 4.07842 0.0 
4.0593 4.0207 0.0 
4.17153 4.04853 0.0 
4.05377 4.02061 0.0 
4.05625 4.04119 0.0 
0 1.33667 0.0 
4.30429 3.98948 0.0 
4.01683 3.96357 0.0 
8.32777 8 0.0 
4.19264 4.05366 0.0 
9.58502 3.6512 0.0 
4.00048 3.94996 0.0 
4.39641 3.97994 0.0 
4.40106 3.98006 0.0 
4.81769 4.13048 0.0 
4.51224 4.03099 0.0 
4.00437 3.9841 0.0 
4.77912 3.89375 0.0 
4.0134 3.97877 0.0 
3.03193 6.72582 0.0 
4.18448 4.02875 0.0 
4.03662 4.02478 0.0 
13.7285 2.45992 0.0 
4.36156 4.08272 0.0 
4.47219 4.03967 0.0 
4.64667 3.91862 0.0 
4.67293 3.89086 0.0 
4.26368 3.97802 0.0 
4.14969 3.94364 0.0 
2.5098 3.59854 0.0 
4.21036 4.03335 0.0 
4.21922 4.02511 0.0 
4.21732 4.03352 0.0 
3.96017 4.14029 0.0 
4.53888 4.02662 0.0 
4.23692 4.01852 0.0 
0.551344 1.2516 0.0 
13.6758 7.1415 0.0 
4.02575 3.96118 0.0 
[...]
<PointData>
  <DataArray type = "Float64" Name="Vitesse" NumberOfComponents="3" format="ascii">
1 0 0.0 
1.00003 0 0.0 
0.999987 0 0.0 
1 0 0.0 
0.695616 -0.0551894 0.0 
0.356637 0.0702234 0.0 
0.0548504 -0.00848231 0.0 
0.393449 -0.0391808 0.0 
0.999969 0.000475207 0.0 
0.304124 0.00729233 0.0 
1.02583 0.0388172 0.0 
0.111648 -0.0136084 0.0 
0.223778 0.00788967 0.0 
0.978285 -0.0633544 0.0 
0.885408 -0.0940898 0.0 
0.221824 -0.0300702 0.0 
-2.13896e-145 -9.40546e-146 0.0 
0.779762 0.195208 0.0 
0.687816 0.187272 0.0 
0.0504826 0.00293072 0.0 
0.027974 0.00231698 0.0 
1.00015 0 0.0 
0.767363 0.169259 0.0 
1.00078 0.0200622 0.0 
1.00008 8.03356e-05 0.0 
-4.64209e-188 -8.06708e-190 0.0 
1 0 0.0 
-1.62129e-188 -3.26213e-190 0.0 
0.151359 -0.00526728 0.0 
0.999019 -0.0729864 0.0 
1.00005 0 0.0 
0.151722 0.0324515 0.0 
1.00009 8.75431e-06 0.0 
0.152337 -0.0161529 0.0 
0.657465 -0.0159294 0.0 
0.0146018 -0.000281552 0.0 
0.557761 0.0622702 0.0 
0.999989 0 0.0 
0.0246564 -0.000261328 0.0 
0.0940186 -0.0109078 0.0 
0.975834 0.038313 0.0 
0.74017 0.0176681 0.0 
1.00054 0 0.0 
0.215924 -0.0270039 0.0 
1 0 0.0 
0.859458 0.144803 0.0 
0.151018 -0.0129292 0.0 
-4.11379e-188 -6.09935e-190 0.0 
0.15368 -0.0210162 0.0 
0.853755 -0.408921 0.0 
-1.00007e-143 -3.81394e-144 0.0 
0.0199776 -0.000551186 0.0 
-3.93787e-188 -4.48837e-191 0.0 
0.999973 -9.39034e-05 0.0 
4.74103e-06 -1.38232e-06 0.0 
-4.43684e-188 -3.86483e-190 0.0 
0.78111 -0.0113242 0.0 
0.90328 -0.0772581 0.0 
0.945954 0.0318773 0.0 
0.00160373 1.56693e-05 0.0 
0.1468 0.0139311 0.0 
0.44189 -0.0363244 0.0 
-3.49782e-188 -2.77309e-189 0.0 
0.114818 -0.0128195 0.0 
0.527844 -0.0410704 0.0 
-3.12212e-42 -3.49141e-43 0.0 
0.185068 -0.0169883 0.0 
0.93233 0.317455 0.0 
0.896336 -0.386885 0.0 
-5.44391e-42 1.0713e-42 0.0 
-2.20143e-142 1.03332e-142 0.0 
1.00233 0 0.0 
0.382095 0.0143317 0.0 
0.53681 0.00577488 0.0 
0.982016 0.00310035 0.0 
1.01072 -0.0399103 0.0 
0.264744 0.123853 0.0 
1.03331 0.00820241 0.0 
0.518076 -0.0165744 0.0 
0.495369 0.0046425 0.0 
0.552907 -0.0350313 0.0 
0.607226 -0.000810302 0.0 
0.986248 -0.0343869 0.0 
0.088083 0.0036822 0.0 
1.07111 -0.107977 0.0 
0.880545 -0.14631 0.0 
0.342433 -0.0331081 0.0 
0.727708 0.10046 0.0 
0.373164 -0.0358183 0.0 
0.785182 0.106473 0.0 
0.315626 -0.00450043 0.0 
0.427933 0.0100936 0.0 
0.999971 -0.000150561 0.0 
0.319242 0.00603334 0.0 
-2.08228e-188 -1.42747e-189 0.0 
0.287221 0.00624137 0.0 
0.150815 -0.0249723 0.0 
0.370351 0.0164645 0.0 
0.730492 0.0648498 0.0 
0.0578742 0.00435366 0.0 
0.738609 0.161461 0.0 
0.255535 -0.0252012 0.0 
-2.45671e-188 -8.97517e-190 0.0 
0.866525 -0.139903 0.0 
0.0679697 -0.00156542 0.0 
-3.79571e-188 -2.8967e-189 0.0 
1.00456 0.0347699 0.0 
0.00161712 -2.30475e-05 0.0 
0.888867 0.0269636 0.0 
-2.71095e-188 -2.08193e-189 0.0 
0.000859463 8.42903e-05 0.0 
1.00267 -2.26667e-05 0.0 
0.919317 0.32425 0.0 
0.00473124 0.000137236 0.0 
0.429079 0.00926613 0.0 
0.409957 0.00548682 0.0 
0.999962 2.27815e-05 0.0 
0.755464 0.104713 0.0 
0.137481 -0.0195624 0.0 
0.756107 0.129094 0.0 
0.706223 -0.0304206 0.0 
0.691277 0.102639 0.0 
0.445257 0.136013 0.0 
0.7491 0.0743488 0.0 
0.754936 0.0945116 0.0 
0.376799 0.0143316 0.0 
0.85521 -0.0104087 0.0 
0.881654 -0.126119 0.0 
0.220743 0.0966919 0.0 
0.344062 0.0135997 0.0 
0.172916 -0.0412599 0.0 
0.319318 0.0152188 0.0 
6.22197e-05 4.01663e-06 0.0 
0.998531 -0.00224894 0.0 
0.750617 -0.0459832 0.0 
0.848995 -0.0469104 0.0 
1.0026 -8.48057e-05 0.0 
0.31276 0.00540866 0.0 
0.215258 -0.00820354 0.0 
0.9122 0.0312293 0.0 
0.988439 0.0278442 0.0 
0.999987 -5.91276e-06 0.0 
0.23622 0.00711728 0.0 
-1.58581e-188 -9.63416e-190 0.0 
0.349049 0.00682036 0.0 
0.0593702 0.00516204 0.0 
0.622319 -0.0123819 0.0 
0.28897 -0.0153465 0.0 
-2.10208e-188 -1.14619e-189 0.0 
-1.84056e-147 -1.72266e-148 0.0 
-1.82505e-146 -1.72183e-147 0.0 
1.00333 -0.00128149 0.0 
0.0298835 -0.00531422 0.0 
0.600942 0.0849664 0.0 
-1.96458e-188 -6.59178e-190 0.0 
0.319418 0.00591378 0.0 
-2.04861e-188 -1.71447e-189 0.0 
-2.05189e-188 -1.64537e-189 0.0 
0.0389369 -0.0014577 0.0 
1.00127 -0.00114521 0.0 
1.00074 0 0.0 
0.999629 0.000134422 0.0 
0.449004 0.0040903 0.0 
0.808628 -0.0684055 0.0 
1.00052 0 0.0 
0.038882 0.0028353 0.0 
1.00026 0.00345338 0.0 
0.999988 1.89138e-05 0.0 
1.03196 0.0499 0.0 
0.979121 0.0231457 0.0 
0.0473362 -0.00509629 0.0 
0.836613 -0.0551259 0.0 
0.148314 -0.0259529 0.0 
1.00151 0 0.0 
0.999979 2.55511e-05 0.0 
0.298077 -0.0308823 0.0 
0.0116012 0.00170267 0.0 
0.896563 0.147968 0.0 
1.00019 -0.000202623 0.0 
0.326985 0.00781552 0.0 
0.875522 -0.0587573 0.0 
1.00028 -7.03849e-05 0.0 
0.893604 -0.028289 0.0 
1.00015 0 0.0 
0.835644 -0.0628083 0.0 
-2.57149e-43 -1.92548e-45 0.0 
-2.48523e-188 -1.40325e-189 0.0 
1.00898 -0.0103541 0.0 
0.071072 -0.00515598 0.0 
1.00165 -0.000392233 0.0 
-1.89731e-188 -1.35953e-189 0.0 
0.378497 -0.038731 0.0 
0.00562994 0.000465183 0.0 
-8.6509e-155 -8.09675e-156 0.0 
0.203589 -0.0186704 0.0 
1.00024 -9.26286e-05 0.0 
-4.82272e-189 1.49992e-190 0.0 
0.151568 -0.0186066 0.0 
-3.90649e-189 1.8213e-190 0.0 
0.746359 -0.00269975 0.0 
0.999953 1.49954e-05 0.0 
0.9929 -0.0792151 0.0 
0.607758 -0.00425925 0.0 
-3.42407e-188 -5.14486e-190 0.0 
-3.17224e-188 -2.69652e-189 0.0 
0.281966 0.0064824 0.0 
0.39388 0.00602313 0.0 
0.60911 0.0305477 0.0 
1.00001 -0.000250312 0.0 
0.163812 0.00421341 0.0 
0.132761 0.00109161 0.0 
-2.89541e-188 -2.19387e-189 0.0 
-1.82386e-145 2.81051e-146 0.0 
0.0873058 -0.0165648 0.0 
0.999947 2.0982e-05 0.0 
-1.03476e-147 -1.45543e-148 0.0 
0.172852 -0.0294775 0.0 
0.31078 0.00597234 0.0 
1.11562 0.0859785 0.0 
-4.21431e-188 -8.70433e-190 0.0 
-4.07074e-189 -1.36555e-190 0.0 
0.79322 -0.0540645 0.0 
0.53849 0.305752 0.0 
1.004 -0.000254495 0.0 
0.0293766 0.00235788 0.0 
0.536555 -0.015053 0.0 
0.230097 0.00621482 0.0 
0.0421944 -0.00629208 0.0 
1.0064 -0.0705631 0.0 
0.999998 0.000131535 0.0 
0.669983 0.0427571 0.0 
1.00003 3.74054e-05 0.0 
0.998972 -0.0945396 0.0 
0.955068 -0.056576 0.0 
0.999906 7.76585e-05 0.0 
1.10766 0.0593442 0.0 
0.820558 0.229862 0.0 
0.360281 0.0200187 0.0 
1.88125e-87 -1.98629e-89 0.0 
0.171882 0.00297078 0.0 
0.558056 -0.0428582 0.0 
0.998663 0.00406866 0.0 
1.00033 -0.00497165 0.0 
1.02732 0.042963 0.0 
-4.30432e-43 -2.18299e-44 0.0 
0.0320278 0.000453692 0.0 
1.00011 0.000266242 0.0 
1.00101 0.000332859 0.0 
-2.42187e-188 9.9811e-190 0.0 
1.00003 5.98946e-06 0.0 
-3.86485e-188 1.93519e-191 0.0 
-1.04883e-140 5.05534e-141 0.0 
0.0072974 -0.000129102 0.0 
1.05345 0.0387043 0.0 
0.999669 0.00056835 0.0 
0.99999 -3.12423e-06 0.0 
-3.87565e-188 -1.91226e-190 0.0 
-1.96299e-188 -1.44699e-189 0.0 
0.206713 0.00680753 0.0 
0.940526 -0.340439 0.0 
0.601745 -0.0578081 0.0 
0.985174 0.117027 0.0 
1.0076 0.0310029 0.0 
0.0381281 -0.00497398 0.0 
0.470965 -0.0297478 0.0 
0.199951 0.00552427 0.0 
1.00312 -0.000193637 0.0 
-8.88094e-143 -1.96768e-143 0.0 
0.00826506 -0.00101603 0.0 
0.843224 0.21868 0.0 
0.122596 0.0421466 0.0 
0.906092 -0.387995 0.0 
0.00246872 0.000239332 0.0 
0.000969732 -0.000126781 0.0 
0.182692 -0.0223901 0.0 
0.158022 -0.019444 0.0 
0.99952 0.00111296 0.0 
1.00109 0.000445719 0.0 
0.0702221 0.00840423 0.0 
0.311641 0.00483921 0.0 
-2.34668e-189 7.81586e-192 0.0 
1.04447 -0.0524528 0.0 
0.421754 0.0033653 0.0 
0.00393721 -0.000695082 0.0 
0.101787 0.00832449 0.0 
0.00166179 0.00014094 0.0 
0.914016 -0.0766949 0.0 
0.219444 -0.0256949 0.0 
1.00046 0.00688164 0.0 
-4.48902e-144 3.77731e-145 0.0 
1.00155 -0.00240244 0.0 
1.03557 0.019102 0.0 
0.298201 0.00719176 0.0 
0.213948 -0.0255865 0.0 
0.997954 -0.000645407 0.0 
0.0409644 0.00194484 0.0 
0.239957 -0.0273063 0.0 
-3.69555e-188 1.80279e-190 0.0 
-1.11846e-148 6.25651e-150 0.0 
0.0269477 0.000337074 0.0 
0.974502 -0.00895656 0.0 
0.405405 -0.00827417 0.0 
-1.51158e-150 -3.11504e-151 0.0 
-6.80787e-143 -9.33124e-144 0.0 
1.00054 0.00132808 0.0 
5.29345e-06 -1.20363e-06 0.0 
-3.53333e-146 -2.78509e-147 0.0 
1.00003 2.18672e-05 0.0 
1.00014 -0.000955227 0.0 
1.08937 0.0490085 0.0 
0.682053 -0.0062388 0.0 
0.998408 0.0163225 0.0 
0.315178 0.00401376 0.0 
0.183782 0.00237871 0.0 
0.0638992 0.00236847 0.0 
0.999907 -5.17561e-05 0.0 
0.317744 0.00726632 0.0 
1.07048 0.0795632 0.0 
0.976693 0.033007 0.0 
0.341218 -0.0369041 0.0 
-4.05792e-147 3.4201e-148 0.0 
1.00225 -0.00128086 0.0 
0.834286 -0.00948073 0.0 
1.0272 0.0262249 0.0 
-6.16799e-145 -8.45418e-146 0.0 
0.00369505 -0.000721004 0.0 
0.925644 -0.352348 0.0 
0.320969 0.00732518 0.0 
1.04227 0.254577 0.0 
1.11455 0.0486599 0.0 
1.00114 -0.000188422 0.0 
0.10982 0.00976496 0.0 
0.872371 0.0312818 0.0 
0.993774 -0.0264845 0.0 
1.01946 -0.264459 0.0 
0.998016 0.000499964 0.0 
1.00029 0 0.0 
1.00353 -0.0246814 0.0 
0.247254 0.00350082 0.0 
0.310397 0.00526879 0.0 
0.976374 0.0575474 0.0 
0.0195821 0.00163655 0.0 
1.00003 0.000316856 0.0 
0.382699 0.00431995 0.0 
0.999784 -0.000245349 0.0 
0.241671 0.101239 0.0 
0.00850661 -0.000646217 0.0 
0.292653 -0.0205854 0.0 
1.01832 -0.0378507 0.0 
0.794757 0.0077251 0.0 
1.02253 0.0589774 0.0 
1.00003 2.98464e-06 0.0 
0.792248 0.215387 0.0 
0.835482 0.201848 0.0 
0.808432 0.198007 0.0 
0.67982 -0.0170401 0.0 
1.00001 -2.33659e-05 0.0 
0.0820532 -0.0217494 0.0 
0.999928 -0.000247531 0.0 
0.0261466 0.00136609 0.0 
1.0195 0.0697099 0.0 
0.0953802 -0.0139295 0.0 
0.0476921 -0.00740594 0.0 
0.879687 -0.111786 0.0 
0.999983 8.55082e-05 0.0 
0.998843 -0.00203053 0.0 
0.997023 -0.0157996 0.0 
0.989324 -0.0840505 0.0 
-4.3172e-188 -7.71398e-190 0.0 
1.00084 0 0.0 
1.00013 0 0.0 
1.00174 0.00138944 0.0 
0.134121 -0.0187793 0.0 
-2.14287e-142 8.47084e-145 0.0 
-2.59701e-147 -2.45012e-148 0.0 
-2.05349e-141 -1.92195e-142 0.0 
0.999907 9.73448e-05 0.0 
-4.14333e-42 4.73625e-43 0.0 
-3.35775e-143 -3.16783e-144 0.0 
1.02198 0.0531124 0.0 
1.00074 0.00185214 0.0 
0.998925 -0.00177538 0.0 
1.00011 -0.000178538 0.0 
1.00124 -0.000350782 0.0 
0.0616142 -0.00953949 0.0 
0.991292 -0.209169 0.0 
-8.05996e-189 2.33122e-190 0.0 
1.00065 -0.000393348 0.0 
1.00002 2.59387e-05 0.0 
0.999988 -3.1569e-06 0.0 
1.00212 0.000273276 0.0 
0.999992 -3.96051e-06 0.0 
0.293055 0.00826606 0.0 
0.0246954 -0.00454785 0.0 
1.03036 -0.245424 0.0 
0.894949 -0.220187 0.0 
0.122518 -0.0173336 0.0 
0.74612 0.0178854 0.0 
0.20529 0.00549789 0.0 
0.327825 0.00952172 0.0 
0.361916 0.0142555 0.0 
0.833389 0.215692 0.0 
0.752285 -0.0156226 0.0 
0.114541 0.00652999 0.0 
0.891331 -0.0506213 0.0 
-3.28755e-45 -2.1737e-46 0.0 
0.999983 -7.15627e-06 0.0 
1.00003 0 0.0 
0.989985 0.254372 0.0 
0.152911 0.00294812 0.0 
0.929166 -0.0259119 0.0 
1.00002 6.68665e-05 0.0 
0.041549 0.00152969 0.0 
0.279763 0.00818058 0.0 
-1.09494e-142 3.88523e-143 0.0 
0.887454 -0.369088 0.0 
0.999988 0.000223417 0.0 
0.0280005 -0.00115655 0.0 
0.800584 0.0364501 0.0 
0.907078 -0.208148 0.0 
0.121332 0.0163741 0.0 
1.00038 0 0.0 
0.992768 -0.0207581 0.0 
-1.4412e-145 5.02802e-147 0.0 
-1.97868e-188 -1.13884e-190 0.0 
-8.88322e-189 2.11529e-190 0.0 
-4.21538e-188 -6.52561e-190 0.0 
0.956833 -0.258915 0.0 
-4.42556e-188 -1.013e-189 0.0 
1.00494 -0.303442 0.0 
1.0259 -0.0670596 0.0 
-1.64358e-143 -3.78471e-144 0.0 
0.044363 -0.00743599 0.0 
0.000438756 -0.000127926 0.0 
-9.29804e-146 -2.87401e-147 0.0 
0.295603 0.00878483 0.0 
0.0567002 0.0033703 0.0 
0.910271 -0.0181848 0.0 
-2.65314e-188 -7.22358e-190 0.0 
0.193962 0.00519035 0.0 
-2.14069e-188 -8.47941e-190 0.0 
0.695957 0.190587 0.0 
1 0 0.0 
0.0587254 0.00235595 0.0 
1.01602 -0.282152 0.0 
1.00043 0 0.0 
0.336217 0.0110746 0.0 
0.999793 0.000119543 0.0 
0.956377 -0.220661 0.0 
0.255159 0.00721419 0.0 
0.255288 0.00668567 0.0 
1.00408 -0.0556676 0.0 
0.188018 -0.0253188 0.0 
0.814231 -0.415024 0.0 
1.01592 0.0322002 0.0 
0.90169 -0.320168 0.0 
1.00196 0.00121455 0.0 
-3.01094e-188 -2.52812e-189 0.0 
0.0953711 0.0270249 0.0 
1.00001 8.16879e-06 0.0 
0.878033 -0.0336506 0.0 
0.249978 -0.0289226 0.0 
0.955652 0.0351657 0.0 
1.02897 0.0310335 0.0 
0.250907 0.00652296 0.0 
1.00067 -0.048273 0.0 
0.997027 -0.00146244 0.0 
-3.42859e-188 -2.50707e-189 0.0 
-2.60231e-188 -1.87936e-189 0.0 
-3.39708e-188 -2.44772e-189 0.0 
0.955631 0.101508 0.0 
0.172911 -0.0263348 0.0 
-1.80501e-188 -1.35389e-189 0.0 
1.00003 -0.000197477 0.0 
0.999988 -4.22272e-06 0.0 
1.04596 -0.25381 0.0 
-4.31903e-188 7.67665e-190 0.0 
0.081207 0.00543795 0.0 
0.0292287 -0.00483009 0.0 
0.312548 -0.117674 0.0 
1.00071 0.00219604 0.0 
-1.59357e-147 -4.93276e-148 0.0 
0.999985 -1.59435e-05 0.0 
0.194527 0.00718117 0.0 
0.704234 0.186808 0.0 
0.999996 -2.14273e-05 0.0 
0.959615 -0.329953 0.0 
0.320782 -0.0113987 0.0 
6.90986e-89 4.60702e-89 0.0 
0.00936945 -0.000631449 0.0 
0.333506 -0.00235195 0.0 
1.00682 -0.0468588 0.0 
0.765687 -0.0375926 0.0 
1 0.000160863 0.0 
0.999994 -1.5329e-05 0.0 
0.0670919 0.0058943 0.0 
0.692033 0.0323225 0.0 
0.00107986 -6.66077e-05 0.0 
1 0 0.0 
0.504057 -0.342105 0.0 
-6.64392e-189 2.09487e-190 0.0 
1 0 0.0 
0.971991 0.274893 0.0 
0.312443 -0.0312002 0.0 
1.00154 -0.000829712 0.0 
0.99998 -1.01636e-05 0.0 
1.00306 0.0374483 0.0 
0.666628 0.309731 0.0 
0.000751105 -4.33346e-05 0.0 
-5.22757e-150 5.2057e-151 0.0 
0.329009 -0.0448469 0.0 
0.363276 -0.0395052 0.0 
1.08744 0.157682 0.0 
0.999955 2.26608e-05 0.0 
0.229172 0.00714756 0.0 
-2.38539e-188 3.99701e-191 0.0 
0.970591 -0.233064 0.0 
0.71826 0.019173 0.0 
0.999966 -4.34882e-05 0.0 
0.99946 -0.00284403 0.0 
1.00582 0.0324996 0.0 
1.04438 -0.0564306 0.0 
0.00170917 -0.000154478 0.0 
0.973597 -0.190896 0.0 
0.47767 -0.121554 0.0 
0.240194 -0.0356225 0.0 
0.547299 0.000399129 0.0 
-1.09827e-188 2.61263e-190 0.0 
0.158363 0.011158 0.0 
0.999119 -0.00135029 0.0 
0.994467 0.00498629 0.0 
0.999666 1.21727e-05 0.0 
1.01971 0.0216317 0.0 
0.998479 0.00211488 0.0 
-3.84311e-189 1.57581e-190 0.0 
1.00298 -0.0740682 0.0 
0.165169 -0.0228562 0.0 
0.999991 4.87537e-05 0.0 
1.00253 5.52338e-06 0.0 
0.999993 1.43333e-05 0.0 
0.643082 0.0133796 0.0 
-3.52141e-188 -2.71392e-189 0.0 
1.00001 0.00016317 0.0 
0.36867 -0.046011 0.0 
1.0024 6.91431e-05 0.0 
0.331599 0.008659 0.0 
1.00004 5.82781e-06 0.0 
0.00716614 0.000916517 0.0 
0.00284165 -0.000370273 0.0 
0.0803639 0.00282502 0.0 
0.711501 -0.0490494 0.0 
2.14567e-08 -1.83081e-09 0.0 
0.317773 0.0319234 0.0 
0.999461 -0.000504926 0.0 
1.00247 7.16536e-05 0.0 
1.08487 -0.0078247 0.0 
1.00001 -4.71014e-06 0.0 
0.0180814 -0.0029604 0.0 
0.722131 0.302401 0.0 
0.983729 -0.0569412 0.0 
1.00001 -0.000136401 0.0 
-2.57465e-188 5.76576e-190 0.0 
0.263716 -0.0170749 0.0 
0.120978 0.00246824 0.0 
-3.93739e-43 -2.60337e-44 0.0 
1.00083 0 0.0 
1.00135 -0.00159908 0.0 
-3.21614e-188 -2.55645e-189 0.0 
1.00181 -0.00662411 0.0 
0.476207 -0.029042 0.0 
1.00131 -0.000431874 0.0 
1.00658 0.000902618 0.0 
1.0005 0.00115328 0.0 
1.00004 0.000113888 0.0 
1.00003 3.49178e-06 0.0 
1.00207e-87 -5.59612e-89 0.0 
0.99494 0.0178866 0.0 
0.45837 0.237469 0.0 
0.062639 0.00214827 0.0 
0.209387 -0.0335941 0.0 
-3.34507e-188 6.55779e-190 0.0 
0.790558 0.340632 0.0 
0.00032659 -1.96362e-05 0.0 
0.842326 0.323983 0.0 
-1.35033e-188 -2.39092e-190 0.0 
0.066915 0.00217058 0.0 
0.574051 0.00669249 0.0 
0.256497 -0.0358661 0.0 
0.270132 0.0155338 0.0 
0.433278 0.00651144 0.0 
0.671774 0.0109296 0.0 
0.33042 0.0310021 0.0 
-2.97126e-188 1.15341e-190 0.0 
0.216256 0.0140567 0.0 
0.0330989 -0.00552016 0.0 
0.999462 -0.000955054 0.0 
0.453603 0.0109998 0.0 
1.00119 9.72215e-05 0.0 
-3.11508e-147 -3.80527e-148 0.0 
1.00004 3.97329e-05 0.0 
0.674283 0.0117279 0.0 
0.959521 -0.264932 0.0 
0.871657 0.02828 0.0 
0.35489 -0.0430339 0.0 
0.60062 0.00172613 0.0 
0.999871 0.000498066 0.0 
1.00117 -0.000816376 0.0 
0.999812 0.000193306 0.0 
1.00018 0.000814321 0.0 
1.00124 0.000191912 0.0 
0.230795 0.00831686 0.0 
0.0496194 0.000863766 0.0 
-3.54603e-188 3.19586e-190 0.0 
1.00285 -0.000170338 0.0 
0.980112 0.0124488 0.0 
0.985041 -0.0150724 0.0 
0.0230663 -0.00246239 0.0 
-5.55227e-189 1.89621e-190 0.0 
0.974133 -0.327264 0.0 
-1.28973e-145 -1.91657e-146 0.0 
0.882614 -0.400284 0.0 
0.441051 -0.0624276 0.0 
0.978768 -0.00381666 0.0 
0.190335 0.0064546 0.0 
0.587597 0.00243886 0.0 
0.808476 0.317008 0.0 
0.369816 0.00939124 0.0 
1.03616 0.0308619 0.0 
0.446302 7.78845e-05 0.0 
1.00005 -3.79281e-05 0.0 
0.988763 0.0281933 0.0 
0.0997305 -0.00964161 0.0 
0.311802 0.00933635 0.0 
0.188985 -0.0256977 0.0 
0.597747 0.0066409 0.0 
1.02439 0.0325483 0.0 
-6.83233e-43 1.05816e-43 0.0 
-3.66716e-188 -2.90169e-189 0.0 
1.00399 -0.000788454 0.0 
-7.88317e-189 1.37268e-190 0.0 
0.181455 -0.024357 0.0 
0.999841 0.000236064 0.0 
0.999038 0.00140255 0.0 
1.00159 -0.00025834 0.0 
0.000609834 -6.02328e-05 0.0 
1.00174 0.00360895 0.0 
1.0001 0.000747308 0.0 
0.995831 -0.0161946 0.0 
-1.44259e-143 8.27346e-147 0.0 
-4.11845e-143 2.31959e-146 0.0 
-2.51757e-146 -3.07538e-147 0.0 
0.723966 0.000438712 0.0 
1.00202 -0.000891948 0.0 
0.000184081 1.59299e-05 0.0 
0.868948 -0.000221417 0.0 
1.00664 -0.0149912 0.0 
1.00025 -0.000316755 0.0 
0.971705 -0.285872 0.0 
0.000464729 0.000201595 0.0 
1.04174 -0.00126796 0.0 
0.934366 -0.308518 0.0 
0.997758 -0.00114362 0.0 
0.999374 0.000451196 0.0 
1.00265 -0.000758732 0.0 
0.84449 0.0231439 0.0 
1.00001 -0.000151875 0.0 
-4.15879e-189 1.90976e-190 0.0 
0.18822 0.00571994 0.0 
0.999928 0.000104631 0.0 
0.737347 0.0155659 0.0 
1.02148 -0.0196075 0.0 
0.704528 -0.0138354 0.0 
1.00518 -0.0118258 0.0 
1.00022 0.000336086 0.0 
-7.80886e-189 2.22906e-190 0.0 
0.427755 -0.0322934 0.0 
1.00014 -7.42965e-05 0.0 
1.00657 -0.000263367 0.0 
-4.88542e-142 -5.28829e-143 0.0 
1.01478 -0.00325397 0.0 
0.962066 -0.0276203 0.0 
-3.66458e-150 -4.47653e-151 0.0 
-4.75781e-189 2.29778e-190 0.0 
0.675303 0.0129815 0.0 
0.70991 0.0882856 0.0 
-2.89272e-146 -2.09e-148 0.0 
0.213538 0.00652892 0.0 
0.999243 -0.00030241 0.0 
0.000461291 -3.23886e-05 0.0 
1.0016 -0.0241233 0.0 
0.0309264 0.00322233 0.0 
0.73778 0.0218079 0.0 
-4.40723e-189 2.13762e-190 0.0 
0.962113 0.036523 0.0 
1.03232 -0.0109292 0.0 
1.00012 0.000226171 0.0 
1.04129 -0.0191661 0.0 
2.05235e-84 -1.6685e-85 0.0 
-4.14871e-142 2.33666e-145 0.0 
1.00002 -2.56663e-05 0.0 
0.998707 0.0190944 0.0 
0.999982 0.000146429 0.0 
1.00048 -0.00855281 0.0 
0.365817 0.00914905 0.0 
1.00223 0.0019983 0.0 
0.99994 0.00065006 0.0 
0.0664888 0.00139926 0.0 
-2.16968e-142 1.22199e-145 0.0 
1.00003 0.000285871 0.0 
1.0022 0.000147774 0.0 
-6.01201e-146 -7.34408e-147 0.0 
0.999799 -1.07937e-05 0.0 
0.281972 -0.178358 0.0 
-7.54328e-189 -2.90478e-192 0.0 
0.296919 0.00777391 0.0 
1.0011 -0.000227798 0.0 
4.61252e-89 -7.16457e-89 0.0 
0.519851 -0.0332208 0.0 
-1.24152e-188 2.95964e-190 0.0 
0.996411 -0.00881166 0.0 
0.821683 -0.0288709 0.0 
0.0754392 -0.00311987 0.0 
0.3823 0.0319246 0.0 
1.00012 0.000600633 0.0 
1.00056 0.000365627 0.0 
1.02387 0.0064008 0.0 
0.353782 0.00628503 0.0 
0.361405 -0.149253 0.0 
1.00007 1.67051e-05 0.0 
0.99935 -0.000446576 0.0 
1.01643 0.00330543 0.0 
0.993339 -0.0133196 0.0 
0.00129405 -1.26387e-05 0.0 
0.169099 0.00594843 0.0 
0.0283095 -0.00634765 0.0 
1.00248 0 0.0 
0.999885 0.000172954 0.0 
0.996401 -0.00263179 0.0 
0.813395 0.00424043 0.0 
1.03029 0.240223 0.0 
0.995647 -0.00375446 0.0 
1.00237 7.33778e-05 0.0 
-8.22255e-143 -5.93784e-145 0.0 
1.00002 -5.1043e-06 0.0 
-8.08314e-189 6.01743e-191 0.0 
0.999919 -0.00166458 0.0 
0.289468 0.00746124 0.0 
0.994567 0.012572 0.0 
0.81693 0.142347 0.0 
1.00161 -0.000701338 0.0 
1.01306 -0.00860401 0.0 
0.228595 0.0189665 0.0 
0.00999834 -0.00220369 0.0 
0.426695 0.0100962 0.0 
0.999988 -5.35078e-06 0.0 
0.0403182 -0.019565 0.0 
0.99997 -6.80101e-06 0.0 
0.999985 -6.18809e-06 0.0 
1.01526 0.223379 0.0 
0.978368 -0.0235108 0.0 
1.01766 0.0115245 0.0 
0.90076 0.0358303 0.0 
1.00286 -0.000185839 0.0 
0.99999 5.19713e-06 0.0 
0.999983 -0.000674788 0.0 
0.9994 0.00214442 0.0 
0.938844 0.033771 0.0 
0.87437 0.197709 0.0 
0.999959 -0.00136825 0.0 
0.928394 -0.0349637 0.0 
-2.86154e-146 1.51388e-147 0.0 
0.982663 0.00386395 0.0 
0.999986 7.76751e-06 0.0 
1.0036 -0.000459879 0.0 
-4.25352e-144 -6.0861e-145 0.0 
0.998995 0.00301156 0.0 