<VTKFile type="UnstructuredGrid" version="0.1" byte_order="LittleEndian">
  <UnstructuredGrid>
    <Piece NumberOfPoints="13523" NumberOfCells="26856">
      <Points>
        <DataArray type = "Float64" NumberOfComponents="3" format="ascii">
0 0 0.0 
14 0 0.0 
14 8 0.0 
0 8 0.0 
0.383893 2.91152 0.0 
4.51189 3.98643 0.0 
13.5337 6.38239 0.0 
4.41871 3.99525 0.0 
4.30141 4.04146 0.0 
9.69483 7.24214 0.0 
4.73454 4.01964 0.0 
4.07057 3.9639 0.0 
4.53824 7.43039 0.0 
4.98619 3.93198 0.0 
3.98741 4.04054 0.0 
3.98768 4.02653 0.0 
3.88393 4.01426 0.0 
4.07152 4.0915 0.0 
2.37857 1.61641 0.0 
3.31161 1.01031 0.0 
3.90882 3.9602 0.0 
4.47538 4.03375 0.0 
4.67405 4.10923 0.0 
4.1789 4.0308 0.0 
4.80484 4.03022 0.0 
4.61584 4.00791 0.0 
12.1265 0 0.0 
11.1865 7.25481 0.0 
4.31298 3.99243 0.0 
4.47107 4.06157 0.0 
4.08301 4.00763 0.0 
4.13489 4.05432 0.0 
4.35984 4.03682 0.0 
4.538 4.03291 0.0 
9.89875 3.93506 0.0 
4.19011 4.04951 0.0 
14 4.58016 0.0 
0 3.36284 0.0 
4.93697 3.93496 0.0 
11.4575 2.65157 0.0 
3.22026 3.32345 0.0 
10.1734 4.4195 0.0 
4.0273 4.01367 0.0 
8.91842 0.967714 0.0 
4.52624 3.99774 0.0 
4.62342 4.01415 0.0 
1.1914 3.57636 0.0 
5.17517 4.1161 0.0 
4.51885 3.99787 0.0 
11.7283 4.38874 0.0 
7.6398 2.6807 0.0 
4.12607 4.05951 0.0 
8.43408 3.16525 0.0 
4.2483 4.03635 0.0 
4.0955 3.94899 0.0 
4.03444 4.04627 0.0 
4.00163 4.02959 0.0 
4.02005 3.99731 0.0 
5.23503 8 0.0 
4.05501 4.21589 0.0 
7.15809 0.691777 0.0 
4.00488 4.00529 0.0 
5.35828 4.09214 0.0 
13.1592 5.2511 0.0 
5.42952 4.67035 0.0 
4.24227 3.99042 0.0 
4.00773 4.00001 0.0 
4.35473 4.03787 0.0 
9.54961 6.99546 0.0 
5.2927 4.05862 0.0 
12.9422 5.39236 0.0 
4.15825 4.03374 0.0 
4.04672 4.0202 0.0 
4.94501 3.90266 0.0 
9.70352 1.23095 0.0 
4.54772 3.97659 0.0 
3.96947 4.02134 0.0 
4.21303 3.97045 0.0 
5.28835 3.91341 0.0 
3.96297 3.96024 0.0 
4.09803 3.98339 0.0 
1.48228 7.4999 0.0 
4.51276 3.99858 0.0 
4.11692 3.94964 0.0 
11.22 2.61786 0.0 
3.95785 3.95439 0.0 
4.09065 3.95069 0.0 
4.02972 4.04518 0.0 
4.62546 3.9826 0.0 
3.97141 4.03046 0.0 
4.30685 4.00461 0.0 
3.97561 4.03322 0.0 
3.97816 4.02179 0.0 
4.04633 4.03304 0.0 
3.96767 4.02507 0.0 
4.53971 3.97638 0.0 
3.93053 4.29293 0.0 
6.95088 7.06331 0.0 
4.54225 3.97864 0.0 
4.45105 4.01067 0.0 
4.84784 6.69328 0.0 
4.54991 3.98013 0.0 
4.11785 4.02706 0.0 
4.73521 7.52615 0.0 
6.85323 7.27439 0.0 
4.52549 3.98021 0.0 
4.76298 3.98345 0.0 
4.29242 4.04042 0.0 
3.88278 3.53328 0.0 
4.08467 4.01549 0.0 
4.1353 3.98745 0.0 
6.98728 5.60342 0.0 
13.6945 7.80328 0.0 
4.1283 4.05439 0.0 
4.00414 3.99309 0.0 
4.48098 4.01702 0.0 
4.84915 4.03246 0.0 
4.44181 3.99686 0.0 
6.37297 2.73989 0.0 
6.50541 6.65271 0.0 
4.0914 3.96216 0.0 
4.90953 3.97583 0.0 
5.20281 3.96498 0.0 
11.3311 3.2072 0.0 
4.25083 4.02467 0.0 
4.65935 4.04515 0.0 
4.01079 3.9997 0.0 
4.05312 3.99197 0.0 
13.7435 8 0.0 
10.0312 4.54545 0.0 
6.67367 0 0.0 
4.00932 4.01975 0.0 
6.82471 4.26136 0.0 
4.20354 4.03712 0.0 
4.04515 4.02697 0.0 
0.139725 5.28321 0.0 
4.00296 3.9374 0.0 
7.99609 6.1415 0.0 
4.40111 4.69815 0.0 
10.6153 7.62373 0.0 
13.1055 3.48759 0.0 
6.22735 7.50315 0.0 
3.53759 3.96287 0.0 
13.8358 7.07283 0.0 
11.7855 3.466 0.0 
8.95603 7.57132 0.0 
4.22222 4.09636 0.0 
3.98122 4.01031 0.0 
1.21548 8 0.0 
9.65423 4.26818 0.0 
4.88498 4.06106 0.0 
4.21367 3.97319 0.0 
9.95518 3.59841 0.0 
2.89316 5.49873 0.0 
4.08943 3.95494 0.0 
4.54778 4.01674 0.0 
3.82642 4.89102 0.0 
4.18074 4.21382 0.0 
4.30092 6.5558 0.0 
4.27411 4.0429 0.0 
2.41657 7.83798 0.0 
4.09428 3.96323 0.0 
4.45188 3.99738 0.0 
3.99816 4.00816 0.0 
4.18332 3.96996 0.0 
3.45026 4.08856 0.0 
4.05827 4.04837 0.0 
4.19268 3.98812 0.0 
12.0372 1.49526 0.0 
9.40278 3.77708 0.0 
4.43943 3.99764 0.0 
13.2114 4.44995 0.0 
4.05399 4.05242 0.0 
5.11537 3.91723 0.0 
4.80896 4.52463 0.0 
4.02321 3.97317 0.0 
6.38052 3.13775 0.0 
5.9291 5.15993 0.0 
13.8474 2.95036 0.0 
4.55558 3.99968 0.0 
9.4176 1.73395 0.0 
4.33917 4.03838 0.0 
5.24537 4.1668 0.0 
6.19945 4.31927 0.0 
4.46368 4.04155 0.0 
4.49223 4.00862 0.0 
4.06062 3.97377 0.0 
8.35832 2.9685 0.0 
13.4699 7.45697 0.0 
7.12026 6.70684 0.0 
4.01229 3.97705 0.0 
2.77497 7.51281 0.0 
8.94235 3.15878 0.0 
4.02163 4.01837 0.0 
4.09808 4.03387 0.0 
4.96928 3.97464 0.0 
4.00577 3.97873 0.0 
4.07219 4.0344 0.0 
5.99011 4.04484 0.0 
6.11944 4.71929 0.0 
7.62224 2.88267 0.0 
4.20802 4.04697 0.0 
4.5671 3.97265 0.0 
0.845864 1.62601 0.0 
10.5319 2.82151 0.0 
5.18268 3.9437 0.0 
5.0604 3.97687 0.0 
0.332338 5.15195 0.0 
5.8599 3.0813 0.0 
4.03796 3.98522 0.0 
6.64238 0.26606 0.0 
4.10819 4.05864 0.0 
4.501 4.42756 0.0 
11.2705 7.61787 0.0 
4.6103 3.91602 0.0 
11.0938 3.73726 0.0 
4.09179 4.02837 0.0 
4.11575 4.03408 0.0 
5.05065 5.17275 0.0 
4.20274 4.07949 0.0 
4.54088 4.00707 0.0 
12.5015 1.14918 0.0 
4.09797 3.95385 0.0 
4.23052 4.09368 0.0 
4.20868 4.08388 0.0 
4.05642 4.03077 0.0 
0.348252 3.3874 0.0 
4.21025 4.03415 0.0 
4.02769 3.86751 0.0 
4.06168 4.07958 0.0 
4.67277 5.32737 0.0 
9.65721 5.90637 0.0 
3.98799 3.95955 0.0 
4.38735 4.07948 0.0 
8.82235 8 0.0 
4.23781 4.09881 0.0 
4.16892 4.04593 0.0 
4.69512 3.9114 0.0 
11.8107 0.651755 0.0 
4.06329 4.04721 0.0 
4.93652 4.08387 0.0 
4.18805 3.96826 0.0 
4.11982 4.04077 0.0 
3.58166 4.19948 0.0 
7.95608 7.77452 0.0 
0.417479 6.31883 0.0 
4.38508 4.0305 0.0 
3.99586 4.00736 0.0 
1.33689 0.42959 0.0 
9.90278 1.9712 0.0 
3.98977 4.04663 0.0 
3.99153 4.04254 0.0 
4.57553 4.01147 0.0 
3.94916 4.03847 0.0 
4.16857 4.05253 0.0 
4.55143 4.02795 0.0 
3.97296 4.00674 0.0 
11.3714 7.19716 0.0 
9.192 5.81999 0.0 
6.73412 3.55133 0.0 
3.53429 0 0.0 
4.67134 3.89044 0.0 
4.08953 4.02996 0.0 
4.14091 4.04918 0.0 
2.30378 3.03595 0.0 
0.898692 6.20579 0.0 
7.34292 5.19319 0.0 
7.40997 8 0.0 
4.10977 3.93388 0.0 
2.86414 6.59491 0.0 
0.262648 3.59521 0.0 
9.9204 3.84008 0.0 
4.19268 4.04367 0.0 
11.4878 0.917753 0.0 
4.04606 4.02962 0.0 
6.78993 2.13526 0.0 
4.12609 4.06211 0.0 
0.846754 0.565038 0.0 
4.01845 4.01173 0.0 
4.92835 0.227572 0.0 
4.02686 4.06322 0.0 
4.02904 3.9664 0.0 
7.59973 7.22298 0.0 
12.6277 1.80732 0.0 
4.28861 3.9918 0.0 
5.85073 0.410811 0.0 
13.0902 7.46595 0.0 
4.02586 3.98561 0.0 
7.56457 6.83703 0.0 
2.66772 5.1655 0.0 
4.76354 3.99674 0.0 
10.9658 2.91172 0.0 
8.6802 3.80876 0.0 
4.51225 4.03393 0.0 
3.96066 4.00697 0.0 
1.47689 3.96699 0.0 
4.96395 4.01931 0.0 
13.1661 5.68046 0.0 
13.7895 0 0.0 
4.10795 4.02897 0.0 
3.77162 4.00815 0.0 
11.4357 2.10385 0.0 
4.32619 3.99278 0.0 
4.33294 3.99316 0.0 
4.00791 4.0033 0.0 
4.0088 3.9805 0.0 
9.75515 2.36072 0.0 
4.54797 4.00407 0.0 
4.00353 3.9915 0.0 
4.02947 3.97325 0.0 
4.1214 4.03972 0.0 
4.6454 3.91884 0.0 
4.01129 4.00596 0.0 
4.1378 3.99436 0.0 
4.54396 3.89411 0.0 
7.19396 5.74117 0.0 
3.84433 4.30611 0.0 
4.01755 3.97046 0.0 
4.52386 4.04096 0.0 
0.195775 6.68759 0.0 
4.05372 4.0206 0.0 
6.42419 4.18044 0.0 
4.15951 4.04428 0.0 
7.63667 0.512991 0.0 
4.0593 4.0207 0.0 
0.861823 0.804062 0.0 
4.46329 3.99581 0.0 
4.11868 3.97589 0.0 
4.15516 3.94365 0.0 
4.01695 3.96353 0.0 
7.66491 7.40727 0.0 
8.32777 8 0.0 
10.2682 5.93402 0.0 
12.3043 5.26106 0.0 
4.5329 4.00655 0.0 
4.51883 4.01095 0.0 
5.06461 4.08435 0.0 
4.00437 3.9841 0.0 
4.47293 4.03853 0.0 
4.0134 3.97877 0.0 
3.03193 6.72582 0.0 
4.36124 4.03445 0.0 
4.01079 3.9893 0.0 
4.49006 4.01506 0.0 
4.36156 4.08272 0.0 
2.48952 3.59766 0.0 
12.5004 4.90847 0.0 
6.60362 4.13153 0.0 
4.20001 4.03326 0.0 
4.17462 4.78499 0.0 
4.21639 4.03358 0.0 
3.92685 3.99783 0.0 
3.89766 4.03669 0.0 
11.5792 7.84461 0.0 
0.551344 1.2516 0.0 
4.02575 3.96118 0.0 
5.74064 5.24444 0.0 
6.49849 5.21743 0.0 
4.08596 4.00486 0.0 
4.0564 4.08847 0.0 
4.47415 3.99666 0.0 
4.85208 4.04382 0.0 
4.0052 4.0005 0.0 
4.04847 3.98514 0.0 
11.8351 6.74811 0.0 
4.06581 3.98517 0.0 
4.1127 3.96242 0.0 
4.00045 4.00043 0.0 
4.15116 3.93854 0.0 
4.13176 4.07898 0.0 
10.2186 2.28825 0.0 
4.45612 4.021 0.0 
4.85957 4.01386 0.0 
3.85377 3.84163 0.0 
4.00279 3.99128 0.0 
4.05385 4.00986 0.0 
2.38712 1.20485 0.0 
3.97181 4.08617 0.0 
6.32476 7.00417 0.0 
12.5996 5.63737 0.0 
4.64409 4.00438 0.0 
1.67428 8 0.0 
10.9441 5.59852 0.0 
10.2024 1.42429 0.0 
4.26617 4.04413 0.0 
10.4752 0 0.0 
4.04015 4.02715 0.0 
4.55399 3.99837 0.0 
4.43216 4.02658 0.0 
4.01037 4.03325 0.0 
4.4562 3.99609 0.0 
3.96806 4.01296 0.0 
11.0968 5.75296 0.0 
4.00341 3.91998 0.0 
4.04676 4.0966 0.0 
3.79815 4.13033 0.0 
4.61918 3.98897 0.0 
7.36099 6.27735 0.0 
4.5467 4.03146 0.0 
4.01504 3.99463 0.0 
4.05208 4.03029 0.0 
4.53595 4.04072 0.0 
7.20657 5.05296 0.0 
5.35653 3.74718 0.0 
9.64772 0.994062 0.0 
13.167 3.69177 0.0 
4.53295 4.01509 0.0 
10.7281 8 0.0 
5.30644 0.173765 0.0 
0.198711 3.79297 0.0 
4.72583 0.194576 0.0 
3.90471 2.31823 0.0 
4.3781 3.98021 0.0 
13.8045 1.5263 0.0 
4.0219 3.98466 0.0 
10.4393 2.36192 0.0 
4.73668 3.89169 0.0 
4.04877 3.98924 0.0 
3.96886 4.00175 0.0 
4.64006 3.99672 0.0 
4.10776 4.04501 0.0 
2.21546 4.23608 0.0 
8.57985 3.52187 0.0 
4.82507 4.1106 0.0 
4.11289 4.04816 0.0 
4.19661 3.95666 0.0 
0.347962 1.57688 0.0 
4.24795 3.92322 0.0 
4.1575 4.04291 0.0 
7.00233 6.47926 0.0 
7.78364 0 0.0 
6.32437 6.34013 0.0 
11.681 7.45325 0.0 
5.62592 4.80931 0.0 
4.7383 3.87602 0.0 
4.07396 4.02843 0.0 
4.26193 4.59514 0.0 
1.64832 6.43608 0.0 
13.7604 0.5867 0.0 
4.4348 4.02619 0.0 
4.20833 4.10668 0.0 
1.32628 2.55488 0.0 
4.25841 3.96952 0.0 
4.03014 4.02376 0.0 
4.25674 4.04296 0.0 
4.53123 4.02551 0.0 
4.5166 4.0127 0.0 
13.8706 3.37457 0.0 
10.6631 4.75828 0.0 
0 0.779097 0.0 
12.8107 4.90082 0.0 
12.4043 7.38649 0.0 
4.30402 3.99184 0.0 
4.28279 4.04134 0.0 
7.05343 0.323278 0.0 
10.1578 0.327018 0.0 
4.40178 3.99585 0.0 
7.14156 0.150746 0.0 
4.36418 4.03508 0.0 
10.4203 1.54278 0.0 
3.89235 3.84687 0.0 
7.30858 6.89242 0.0 
4.12805 3.98521 0.0 
8.64936 2.61471 0.0 
9.46048 3.26649 0.0 
12.852 4.10424 0.0 
7.18228 0.487344 0.0 
3.99809 3.99917 0.0 
4.47017 0.936125 0.0 
1.00096 5.1448 0.0 
13.4732 2.41076 0.0 
4.22688 4.04602 0.0 
9.40388 3.06557 0.0 
4.45564 4.02158 0.0 
[...]
<PointData>
  <DataArray type = "Float64" Name="Vitesse" NumberOfComponents="3" format="ascii">
1 0 0.0 
1.00491 0 0.0 
1.00354 0 0.0 
1 0 0.0 
0.999969 -0.000137204 0.0 
0.18604 0.00462595 0.0 
1.00447 -0.000777023 0.0 
0.0195414 0.00052694 0.0 
0.0371056 -0.00395985 0.0 
1.00523 -0.000219317 0.0 
0.266156 -0.0109472 0.0 
0.874492 -0.0946598 0.0 
1.00524 0.000726338 0.0 
0.822015 0.0170642 0.0 
0.774335 0.197517 0.0 
0.682404 0.189159 0.0 
0.893593 0.0029989 0.0 
1.04698 0.208014 0.0 
1.00082 -0.00177842 0.0 
1.00244 -0.00157495 0.0 
0.892211 -0.051909 0.0 
0.132815 -0.0159977 0.0 
0.959137 -0.045322 0.0 
0 0 0.0 
0.371412 -0.0172734 0.0 
0.117801 -0.00179222 0.0 
1.00551 0 0.0 
1.0048 -0.000225126 0.0 
0.0101977 0.000613473 0.0 
0.502465 -0.0368365 0.0 
0 0 0.0 
0.538838 0.0595118 0.0 
0.0403964 -0.00435885 0.0 
0.182399 -0.0236172 0.0 
0.85843 0.00179928 0.0 
0.184161 0.00439298 0.0 
1.01262 -0.000364381 0.0 
1 0 0.0 
0.804083 0.0187058 0.0 
1.0069 0.000481042 0.0 
0.99524 -0.0072265 0.0 
1.00805 -0.000544417 0.0 
0 0 0.0 
1.00618 4.94078e-05 0.0 
0.0196063 -0.000103196 0.0 
0.132069 -0.00990821 0.0 
0.999497 -5.93823e-05 0.0 
0.943095 -0.0160706 0.0 
0.0154533 0.000992313 0.0 
1.00956 -2.64373e-05 0.0 
1.00721 0.00013129 0.0 
0.761662 0.104408 0.0 
1.00716 0.000196217 0.0 
0 0 0.0 
1.03212 -0.0970537 0.0 
0.924744 0.316346 0.0 
0.720093 0.309266 0.0 
0 0 0.0 
1.00569 0 0.0 
1.02111 0.0974121 0.0 
1.00608 -9.41646e-05 0.0 
0 0 0.0 
0.857265 -0.0128986 0.0 
1.00568 -0.00126973 0.0 
1.01293 -0.00549275 0.0 
3.64151e-05 1.39706e-06 0.0 
0 0 0.0 
0.0484067 -0.00489376 0.0 
1.00538 -0.000292893 0.0 
0.69564 -0.0128181 0.0 
1.00582 -0.00111419 0.0 
0 0 0.0 
0 0 0.0 
0.948186 0.0166327 0.0 
1.00623 0.000110773 0.0 
0.347339 0.0151466 0.0 
0.725428 0.0673562 0.0 
0.396833 0.00464032 0.0 
0.891274 0.00946768 0.0 
0.859608 -0.137472 0.0 
0.0799584 0.00277442 0.0 
1.00059 0.000419331 0.0 
0.00089447 5.4998e-05 0.0 
0.980716 -0.0677868 0.0 
1.00688 0.000437726 0.0 
0.874222 -0.124911 0.0 
1.02729 -0.100879 0.0 
0.912741 0.323987 0.0 
0.299383 0.0273316 0.0 
0.7503 0.107106 0.0 
-4.44032e-249 -3.29848e-250 0.0 
0.751143 0.131271 0.0 
0.686282 0.104803 0.0 
0.430656 0.13293 0.0 
0.743934 0.0768645 0.0 
0.345879 0.0127525 0.0 
0.992876 0.0591095 0.0 
1.00624 -0.000262296 0.0 
0.315162 0.0121675 0.0 
0 0 0.0 
1.00666 0.00134585 0.0 
0.298707 0.0140949 0.0 
0 0 0.0 
1.00541 0.000527677 0.0 
1.00615 -0.000173161 0.0 
0.283558 0.0083936 0.0 
0.381538 0.0176067 0.0 
1.38607e-06 6.61199e-08 0.0 
0.99921 -0.027279 0.0 
0 0 0.0 
3.36656e-44 4.02702e-45 0.0 
1.00749 -0.0011944 0.0 
1.00372 -9.6827e-05 0.0 
0.577886 0.0713047 0.0 
0.253291 -0.175484 0.0 
0.00410348 -0.000652446 0.0 
0.412486 -0.016565 0.0 
0.0056427 0.000356751 0.0 
1.00783 0.00011958 0.0 
1.00678 -0.000307461 0.0 
0.822951 -0.0625473 0.0 
0.503542 0.014002 0.0 
0.637417 0.00938405 0.0 
1.00754 0.000490881 0.0 
-7.2225e-201 9.94488e-203 0.0 
0.396085 -0.0358426 0.0 
0 0 0.0 
0 0 0.0 
1.00366 0 0.0 
1.008 -0.000934433 0.0 
1.00582 0 0.0 
0.528958 0.307655 0.0 
1.00596 -0.0022863 0.0 
0 0 0.0 
0.0485955 0.0168247 0.0 
0.999999 0.000126583 0.0 
0.967271 -0.188897 0.0 
1.00641 -0.000691765 0.0 
1.02654 0.0119981 0.0 
1.00486 -0.00010876 0.0 
1.01056 0.000740959 0.0 
1.00615 -2.05031e-06 0.0 
0.975633 -0.00130283 0.0 
1.00387 -0.000468327 0.0 
1.0087 0.000762876 0.0 
1.00536 -0.000133205 0.0 
1.08819 0.0641861 0.0 
0.604822 0.0330598 0.0 
1.00042 0 0.0 
0.996972 -0.000496402 0.0 
0.644295 -0.0270994 0.0 
0.336356 0.00524993 0.0 
1.00796 0.000562579 0.0 
1.00129 0.00540613 0.0 
0.978445 -0.0918952 0.0 
0.0602569 -0.0120333 0.0 
1.00633 0.016318 0.0 
1.07265 0.0737421 0.0 
1.00609 0.00238227 0.0 
0.0320611 -0.00232509 0.0 
1.00166 0.000229151 0.0 
0.781929 -0.0537752 0.0 
0.000373393 2.3464e-05 0.0 
0.262995 0.187647 0.0 
0.421493 0.0024768 0.0 
0.980906 0.00546476 0.0 
0.881835 0.242573 0.0 
0.0117462 -0.000157877 0.0 
1.006 0.000390199 0.0 
0.98743 0.00108302 0.0 
3.52856e-07 3.5594e-08 0.0 
1.00912 -0.00119179 0.0 
0.962039 0.273986 0.0 
0.886551 0.0120143 0.0 
1.02416 -0.00701363 0.0 
0.94998 -0.25907 0.0 
1.00833 0.000237822 0.0 
1.00937 -0.00219376 0.0 
1.00586 0.00135767 0.0 
0.000185075 -2.427e-05 0.0 
1.00652 0.000130517 0.0 
0.035001 -0.00471481 0.0 
1.00349 -0.0128405 0.0 
1.00755 -0.0038637 0.0 
0.212602 -0.021975 0.0 
-5.1125e-289 2.31757e-290 0.0 
0.586157 -0.0575331 0.0 
1.00718 0.000189933 0.0 
1.0039 -0.000245463 0.0 
1.00643 -0.00043435 0.0 
0.930438 -0.339079 0.0 
1.00221 0.000779512 0.0 
1.00717 0.0001741 0.0 
-3.2275e-173 -7.12808e-174 0.0 
0 0 0.0 
0.530674 0.0130299 0.0 
0.895615 -0.385297 0.0 
0.095894 0.0210366 0.0 
0.709583 -0.00577955 0.0 
1.00906 -0.00332592 0.0 
1.0072 0.000170652 0.0 
0.0886006 0.00147233 0.0 
0.407638 0.0267126 0.0 
1.00006 -0.000445089 0.0 
1.00699 0.000332753 0.0 
0.754698 0.0115909 0.0 
0.543738 0.0100437 0.0 
0.999989 0.000294212 0.0 
1.00883 0.000442604 0.0 
0.129806 -0.017288 0.0 
1.00586 -7.58115e-05 0.0 
0.833407 0.139807 0.0 
1.04131 0.00268903 0.0 
1.00467 -0.000116591 0.0 
0.95027 0.0268254 0.0 
0.990192 0.000716659 0.0 
0 0 0.0 
0 0 0.0 
1.01318 -0.000219147 0.0 
0.951388 0.0614451 0.0 
0.00694981 -0.00131095 0.0 
1.00569 0.000348316 0.0 
0.969239 -0.0815281 0.0 
1.06472 0.0552061 0.0 
1.00094 0.0626514 0.0 
0.0840985 0.0207675 0.0 
0.999969 -4.00462e-05 0.0 
0 0 0.0 
1.01032 -0.104795 0.0 
1.03388 0.233033 0.0 
1.01333 0.00363984 0.0 
1.00611 -0.000562846 0.0 
0.88701 -0.218414 0.0 
0.765484 -0.0284119 0.0 
1.00533 0 0.0 
1.08767 0.0540414 0.0 
0.0890541 0.00173472 0.0 
0.950019 0.0281718 0.0 
1.0057 0.000154581 0.0 
0.816709 0.211891 0.0 
0.815218 -0.0265538 0.0 
0.459249 0.00166205 0.0 
0.0264632 0.00236517 0.0 
0.977562 0.0158388 0.0 
1.00565 -7.40937e-05 0.0 
1.00003 0.00033515 0.0 
-2.11586e-288 1.47285e-289 0.0 
0.300401 0.126312 0.0 
1.00034 -0.000232605 0.0 
1.00662 0.000186374 0.0 
0.804574 0.205445 0.0 
0.787148 0.21739 0.0 
0.0576597 -0.0181961 0.0 
0.820128 0.0691664 0.0 
0.335568 0.0203261 0.0 
0.14717 -0.0236712 0.0 
0.675127 -0.0143156 0.0 
1.00478 -0.000245955 0.0 
1.00633 -0.000625527 0.0 
1.00819 0.00065921 0.0 
1.00273 0 0.0 
1.00997 0.0239434 0.0 
0 0 0.0 
0.305423 0.0276442 0.0 
0.998497 -0.00209008 0.0 
1.00012 0.000785703 0.0 
1.0072 -0.00138251 0.0 
1.00578 0 0.0 
1.07988 -0.0941287 0.0 
1.00239 0.00250823 0.0 
0.999977 6.44571e-06 0.0 
0.941007 0.000764721 0.0 
-1.53072e-205 -1.16942e-206 0.0 
1.00586 0.00019043 0.0 
0.216266 0.0676315 0.0 
1.00711 -0.000124671 0.0 
0.833778 0.117404 0.0 
1.00013 -0.000182054 0.0 
0 0 0.0 
1.0047 -0.00025465 0.0 
0.942865 0.267652 0.0 
1.02105 -0.245434 0.0 
1.00592 -0.000257068 0.0 
1.00601 0.000589466 0.0 
0.00793177 0.000128848 0.0 
1.00555 -0.000251968 0.0 
1.00406 -0.000222153 0.0 
0.25138 -0.0480047 0.0 
1.00615 -0.00040663 0.0 
0.999698 0.0050533 0.0 
0.300813 0.00832268 0.0 
1.0071 0.000380272 0.0 
0.976407 0.00103397 0.0 
0.169469 -0.0201602 0.0 
0.747233 -0.0128523 0.0 
0.999119 0.00042212 0.0 
0.420498 -0.00713901 0.0 
1.00538 -0.00104922 0.0 
1.00498 0 0.0 
0 0 0.0 
0.944496 0.000991972 0.0 
1.00653 0.000410488 0.0 
0.0104902 0.000883789 0.0 
0.00930982 0.000132508 0.0 
0 0 0.0 
0.878112 -0.367545 0.0 
1.00685 0.000209176 0.0 
0.0019053 -0.000370343 0.0 
0.452782 -0.307291 0.0 
0.898707 -0.208376 0.0 
7.0054e-17 6.26113e-18 0.0 
0.927441 0.0291113 0.0 
0 0 0.0 
-2.00335e-161 7.28424e-163 0.0 
1.03026 0.0128658 0.0 
1.00721 -0.00104033 0.0 
0.984985 0.0445303 0.0 
0.994655 -0.302467 0.0 
0.25872 -0.028019 0.0 
1 0.000129209 0.0 
0 0 0.0 
0.993754 -0.00389255 0.0 
0.0467992 0.00192813 0.0 
1.00606 -3.15704e-05 0.0 
0 0 0.0 
1.00013 -0.000259465 0.0 
0.0272499 0.00164475 0.0 
0.312201 -0.00250904 0.0 
0.97914 -0.0465081 0.0 
1.00647 -0.28067 0.0 
1.00583 -0.000194104 0.0 
1.00549 0 0.0 
1.00596 -0.000536115 0.0 
1.00614 -0.000944953 0.0 
3.58146e-05 -4.16664e-06 0.0 
0.00619981 -0.0011672 0.0 
0.820102 -0.0214169 0.0 
0.804866 -0.413599 0.0 
0.184079 -0.0202226 0.0 
0.892195 -0.319058 0.0 
1.00275 0.00234096 0.0 
0.0109882 -0.00161831 0.0 
0.312351 -0.112601 0.0 
0.0027297 -0.000154575 0.0 
0.821688 -0.0216892 0.0 
0.996493 -0.0011034 0.0 
1.00655 -0.00105846 0.0 
0.935508 -0.00379326 0.0 
0 0 0.0 
1.01776 0.0169608 0.0 
0 0 0.0 
0.844798 -0.0236228 0.0 
0.884634 0.0251267 0.0 
1.00453 -4.93155e-05 0.0 
1.00004 -0.00023499 0.0 
1.03623 -0.25323 0.0 
1.00993 -0.00182669 0.0 
1.00807 -0.00181571 0.0 
0 0 0.0 
1.02182 0.217672 0.0 
0.0199441 0.000591134 0.0 
0.493355 -0.0224298 0.0 
0 0 0.0 
0.076766 -0.00436885 0.0 
1.00489 -0.000410554 0.0 
0.031517 -0.0033467 0.0 
0.738852 -0.0365358 0.0 
0 0 0.0 
1.02903 -0.0559259 0.0 
1.07092 0.153669 0.0 
1.00678 0.000239366 0.0 
0.00315554 -0.000585341 0.0 
0.348032 -0.00496758 0.0 
0.961752 -0.0447211 0.0 
0.49974 -0.352509 0.0 
0 0 0.0 
1.00104 -0.00133122 0.0 
0.897624 0.13759 0.0 
1.0065 -0.000104011 0.0 
1.00571 -0.000905825 0.0 
0.162218 0.00412659 0.0 
1.00079 0 0.0 
1.0062 -0.000604041 0.0 
1.00628 0.000161434 0.0 
0.0483151 -0.00213296 0.0 
1.00584 0 0.0 
0.174565 0.053885 0.0 
0.018657 3.1533e-06 0.0 
0.0189833 -0.00225705 0.0 
0.784037 0.342791 0.0 
0.0204064 0.000171794 0.0 
0.713374 0.0218158 0.0 
1.006 -0.000591237 0.0 
0.979169 -0.156221 0.0 
1.0046 0.203362 0.0 
0.950616 0.0324423 0.0 
0.228883 0.0228983 0.0 
1.00664 -0.000671654 0.0 
0.175626 -0.0248408 0.0 
1.06458e-64 -3.27071e-65 0.0 
0.137206 0.0380092 0.0 
0.265826 -0.0297797 0.0 
1.00733 -0.00159996 0.0 
1.00816 0.00483831 0.0 
1.00614 8.60474e-05 0.0 
0.994401 0.00293259 0.0 
0.0371904 -0.00634058 0.0 
1.00477 0 0.0 
1.00508 -0.000160651 0.0 
0.999992 2.86208e-05 0.0 
1.00445 -0.000241293 0.0 
1.00448 -0.00550092 0.0 
0.232852 0.00650071 0.0 
1.00536 0.000585479 0.0 
0.405994 -0.0978349 0.0 
1.00681 0.000273864 0.0 
0.996014 0.0233409 0.0 
0 0 0.0 
0.706594 -0.0460118 0.0 
0.190474 0.0129898 0.0 
0.315689 0.0449664 0.0 
0.997594 0.00165491 0.0 
1.00743 0.000321996 0.0 
0.944761 -0.0335658 0.0 
0.42329 0.0603889 0.0 
0.707772 -0.0085461 0.0 
1.00001 -0.000169906 0.0 
1.0306 -0.0258494 0.0 
3.26514e-07 3.00882e-08 0.0 
1.00668 -0.000536512 0.0 
1.00598 0 0.0 
1.00726 -0.000412881 0.0 
1.00458 -0.000176738 0.0 
1.0111 -0.00392166 0.0 
1.01515 0.0208144 0.0 
-6.77349e-108 -1.53513e-108 0.0 
1.02865 0.0204676 0.0 
1.00057 0.00144279 0.0 
1.00507 0.000208115 0.0 
0.0190128 -0.00246179 0.0 
1.12254 0.081368 0.0 
0.999796 -0.000813877 0.0 
0.406694 0.00609115 0.0 
0.181831 0.0616916 0.0 
0.0152301 -6.43595e-05 0.0 
0.107927 -0.0153178 0.0 
0.0120713 -0.00217146 0.0 
1.00741 0.00177613 0.0 
1.00694 -0.000781517 0.0 
1 0 0.0 
1.00672 -0.00125897 0.0 
1.00436 -0.000224169 0.0 
0.0141074 0.000899085 0.0 
0.0130844 -0.000656266 0.0 
1.00595 -5.51136e-05 0.0 
1.00591 3.74153e-05 0.0 
0.00014699 1.59653e-05 0.0 
1.00595 -2.3352e-05 0.0 
0.0233104 -0.00245348 0.0 
1.00632 0.000192596 0.0 
0.96232 -0.0565976 0.0 
1.00622 -0.00036936 0.0 
0.0317989 0.00108397 0.0 
1.00706 0.000152977 0.0 
1.00761 0.000104984 0.0 
0.910889 -0.00376904 0.0 
1.00601 -6.70899e-05 0.0 
0.143163 -0.230999 0.0 
1.00446 -0.00133284 0.0 
0.99988 0.000975487 0.0 
1.00599 0.00104988 0.0 
0.0645079 -0.0021246 0.0 
1.00701 0.000275213 0.0 
0.00642284 -0.00127892 0.0 
0.993348 0.00169621 0.0 
0.283846 -0.0409138 0.0 
0.802723 0.319079 0.0 
0.0101198 7.37732e-05 0.0 
1.00566 4.5896e-05 0.0 
0.705684 0.0132629 0.0 
0.918355 0.0188063 0.0 
1.00104 0.00239194 0.0 
0.879521 0.0100386 0.0 
0.0353532 -0.00115107 0.0 
1.00814 0.00202824 0.0 
0.902314 -0.00389633 0.0 
1.0041 -0.0003102 0.0 
1 0.000232132 0.0 
0.338088 0.0547174 0.0 
0.692065 0.00110169 0.0 
0.00756938 0.000434626 0.0 
0.260711 0.0228963 0.0 
1.00637 -0.0006216 0.0 
0.963508 -0.283049 0.0 
1.0052 0.00145633 0.0 
1.0055 -0.000693253 0.0 
1.00578 -0.000374333 0.0 
0.0858973 0.00228481 0.0 
0.501543 -0.0128101 0.0 
0.924625 -0.305865 0.0 
0.997326 -0.000786413 0.0 
0.999356 0.000716261 0.0 
1.00663 0.000651037 0.0 
0 0 0.0 
1.00002 -0.000184142 0.0 
0.812645 0.0141037 0.0 
0.999937 -0.00133921 0.0 
1.00726 0.000314249 0.0 
0 0 0.0 
0.390427 0.138582 0.0 
0 0 0.0 
1.00608 -0.00100319 0.0 
1.00024 0.000356722 0.0 
0.600118 0.0141727 0.0 
1.00648 -0.000673343 0.0 
1.00521 -0.000158234 0.0 
1.01015 0.00420824 0.0 
1.01811 0.00948465 0.0 
1.0057 -0.000265702 0.0 
1.00709 0.000215577 0.0 
0.635718 0.0145139 0.0 
0.920341 -0.000794802 0.0 
0.70489 0.0906233 0.0 
0.999997 -0.00043995 0.0 
1.00133 0.0027948 0.0 
0.983624 0.139353 0.0 
1.00411 -0.000167747 0.0 
1.00836 0.00126686 0.0 
1.00772 -0.00124921 0.0 
0.790536 0.00183028 0.0 
1.00644 0.000135388 0.0 
1.00887 0.00189662 0.0 
1.00003 0.000300624 0.0 
0.72294 -0.030845 0.0 
1.00691 0.000269489 0.0 
1.00703 -0.000696582 0.0 
1.00629 -0.000334485 0.0 
1.00848 -0.00215052 0.0 
1.00803 -0.00710499 0.0 
1.00541 -0.000172581 0.0 
0.00368044 -0.000758557 0.0 
1.00533 -0.000395659 0.0 
0.514275 0.264099 0.0 
1.00579 4.47352e-05 0.0 
1.00629 -0.000609213 0.0 
0.384121 -0.0108436 0.0 
1.00693 6.38735e-05 0.0 
1.0015 0.0012351 0.0 
1.00657 -0.000227709 0.0 
0.62024 0.0268891 0.0 
0.440865 -0.016201 0.0 
0.00938145 -0.00120254 0.0 
0 0 0.0 
0.886631 -0.0210524 0.0 
1.1252 0.0826398 0.0 
1.0057 -0.000729643 0.0 
0.331907 -0.0058731 0.0 
1.0057 8.33752e-05 0.0 
1.00892 0.000407611 0.0 
1.03997 -0.00265069 0.0 
0.0288892 -0.000239591 0.0 
0.203576 0.0173613 0.0 
0.0135497 -0.00221257 0.0 
1.00461 0.00653978 0.0 
1.27417e-43 4.70689e-45 0.0 
1.00395 0.00025284 0.0 
1.00411 -0.000249225 0.0 
0.0456266 -0.000192158 0.0 
0.560901 -0.0356848 0.0 
1.00726 0.000113615 0.0 
1.01318 0.0264068 0.0 
1.00004 0.000186769 0.0 
4.04993e-06 3.03624e-07 0.0 
0.868642 -0.0163768 0.0 
0.862166 0.0304872 0.0 
0.998427 -0.00230835 0.0 
0.0361099 0.00358663 0.0 
0.0306496 -0.016813 0.0 
0.787235 -0.0110092 0.0 
1.00594 -3.30432e-05 0.0 
1.00435 0.00131727 0.0 
0.856816 0.0596643 0.0 
0.0607644 -0.0131699 0.0 
0.0706726 0.00991145 0.0 
0.875688 0.16377 0.0 
1.00741 0.000239665 0.0 
1.00561 -0.0449484 0.0 
1.00708 7.48849e-05 0.0 
1.00058 -0.000419512 0.0 
-4.35667e-207 6.86122e-209 0.0 
1.00505 -0.00248914 0.0 
0.453494 0.207072 0.0 
0.998892 0.00447532 0.0 
1.0059 0.000834258 0.0 
1.00531 -0.000419082 0.0 
1.00174 -0.000506513 0.0 
1.01957 -0.0938355 0.0 
0.970943 -0.0376567 0.0 
1.00645 -0.000612342 0.0 
1.006 -5.51283e-05 0.0 
1.00469 -0.00284616 0.0 
0.83474 0.291753 0.0 
1.03848 0.0239046 0.0 
1.00488 -0.000962957 0.0 
0.0363243 -0.00715794 0.0 
1.00592 8.22501e-05 0.0 
0.0464776 0.00208365 0.0 
1.00661 -0.000148344 0.0 
0.60777 0.03043 0.0 
0 0 0.0 
1.00001 7.20961e-05 0.0 
1.00426 -0.00290151 0.0 
1 -0.000954232 0.0 
0.912901 -0.0161582 0.0 
0.0298727 -0.00123064 0.0 
1.00705 0.0004038 0.0 
0.010605 7.69652e-05 0.0 
0 0 0.0 
1.00617 -0.000618539 0.0 
0.955388 0.0281748 0.0 
0.88621 0.015502 0.0 
1.0074 -0.000734166 0.0 
1.00623 0.00111856 0.0 
0.00408438 -0.000589594 0.0 
0.997472 0.0123365 0.0 
1.00759 0.0002171 0.0 
0.572044 0.00200707 0.0 
1.00454 -0.000538387 0.0 
0.395645 -0.00961954 0.0 
0.273249 0.00466575 0.0 
1.00684 0.000849701 0.0 
1.00502 -0.00074034 0.0 
1.00001 -0.000260821 0.0 
1.00007 -0.000219951 0.0 
0.861345 0.0313512 0.0 
5.4505e-06 2.21759e-07 0.0 
1.00754 0.000269772 0.0 
1.00877 0.000185082 0.0 
0.301902 0.0660696 0.0 
1.05992 0.0947424 0.0 
1.00264 0.151193 0.0 
0.904511 -0.0944962 0.0 
1.00132 0.000847656 0.0 
1.0071 0.000164932 0.0 
0.401932 0.00499998 0.0 
0.402965 0.0315037 0.0 
0.431495 0.00788661 0.0 
0 0 0.0 
0.598906 -8.19942e-05 0.0 
1.00695 -0.00062974 0.0 
0 0 0.0 
1.00573 -0.000682122 0.0 
1.00594 -0.000109838 0.0 
1.00524 -0.00106428 0.0 
1.00537 -0.000563355 0.0 
0.181586 0.00037854 0.0 
0.447555 -0.017593 0.0 
0 0 0.0 
1.00568 0.000744681 0.0 
1.0055 -0.000561687 0.0 
0.388536 0.00545145 0.0 
1.00494 -0.000120288 0.0 
0.127634 -0.0171945 0.0 
1.00763 -0.00194284 0.0 
1.00466 -0.000934625 0.0 
1.00467 -0.000446584 0.0 
0.0312784 -0.0163431 0.0 
0.893206 0.0140367 0.0 
1.00563 -0.00018746 0.0 
1.00008 -0.000693385 0.0 
0.910997 -0.0563529 0.0 
1.00486 -0.000158816 0.0 
0.927415 -0.164283 0.0 
1.00128 -0.00669872 0.0 
0.999855 0.000379213 0.0 
0.0122798 -0.00115091 0.0 
1.0001 0.000585306 0.0 
0.999846 0.00317459 0.0 
0.417298 0.00195974 0.0 
1.00597 0.00033621 0.0 
0.970253 -0.0668434 0.0 
0.433407 -0.00102572 0.0 
1.00798 -0.000141408 0.0 
0.470759 -0.0224769 0.0 
0.994327 -0.00129925 0.0 
1.00605 -0.000302909 0.0 
1.00948 0.000471307 0.0 
1.00414 -0.00253242 0.0 
1.00534 0.000292751 0.0 
1.00084 0.0168614 0.0 
0.444036 0.174256 0.0 
1.0061 0.000212181 0.0 
1.00477 -0.000652809 0.0 
1.00675 -0.000640844 0.0 
-1.28297e-167 1.34022e-168 0.0 
1.01054 -0.000481858 0.0 
1.0064 -9.22107e-05 0.0 
0.333736 -0.00159081 0.0 
0.353798 -0.00177541 0.0 
1.00603 9.67534e-05 0.0 
1.00833 0.000564534 0.0 
1.0069 -1.8014e-05 0.0 
0.788042 0.141153 0.0 
1.00775 -0.000829109 0.0 
1.00592 -0.000647283 0.0 
1.00637 7.30161e-05 0.0 
1.00632 0.000243045 0.0 
1.0073 7.90444e-05 0.0 
0.141448 0.0277613 0.0 
0.346453 0.000993267 0.0 
0.566311 -0.0174301 0.0 
0.948624 -0.051651 0.0 
0.793951 -0.00118193 0.0 
0.999832 -0.000287072 0.0 
0.997669 0.00434533 0.0 
1.007 0.000137043 0.0 
1.00001 -0.000133753 0.0 
0.951845 0.0225876 0.0 
1.00731 -0.00185224 0.0 
0.0719796 -0.00187002 0.0 
1.00503 -0.00125793 0.0 
1.00322 0.00220882 0.0 
0.823449 0.00501525 0.0 
0.984034 -0.124145 0.0 
1.00678 -0.000832768 0.0 
0.835463 -0.051514 0.0 
1 -0.000255234 0.0 
0.322857 -0.234599 0.0 
0.389868 0.0863581 0.0 
0.0652954 -0.000348032 0.0 
0.698088 0.00430344 0.0 
1.00237 0.00979212 0.0 
1.007 -0.000317923 0.0 
0.0155255 0.000983169 0.0 
1.00001 0.000102298 0.0 
0.0259146 0.000328749 0.0 
0.018412 0.00194489 0.0 
1.00661 -0.000755408 0.0 
0 0 0.0 
0.0110807 0.00101242 0.0 
1.00355 0.000853602 0.0 
0.235969 0.00420071 0.0 
0.518731 -0.0464325 0.0 
0.482754 0.0678256 0.0 
1.00483 -0.0015427 0.0 
0.97617 -0.0341987 0.0 
0.885232 -0.055093 0.0 
0.0151714 -0.0280513 0.0 
1.00581 0.000145911 0.0 
1.00909 0.00380107 0.0 
0 0 0.0 
0.945119 0.0682397 0.0 
0.948234 0.0207649 0.0 
0.914649 -0.373143 0.0 
0.0449997 -0.00482773 0.0 
1.00593 -0.00092745 0.0 
3.20601e-59 4.15005e-59 0.0 
1.11693 0.0424167 0.0 
0.0595589 0.0116946 0.0 
1.00679 0.0009043 0.0 
0.00999443 -0.000232158 0.0 
0.999515 -0.000855374 0.0 
1.00134 0.00149008 0.0 
1.0078 -0.000337237 0.0 
1.00483 -0.00018877 0.0 
0.999761 0.00185078 0.0 
1.00587 0.000783841 0.0 
1.00548 4.42091e-05 0.0 
1.00671 0.000286599 0.0 
1.00558 0 0.0 
0.883652 -0.0205587 0.0 
2.01172e-49 -5.57277e-51 0.0 
0.0809265 0.0549691 0.0 
1.00614 0.000895541 0.0 
0.537749 0.0910646 0.0 
0.0206065 0.000691807 0.0 
1.00682 -3.07969e-06 0.0 
1.00635 0.000837713 0.0 
0.999921 -0.000228912 0.0 
0.0489235 0.0101237 0.0 
1.00604 -1.31964e-05 0.0 
1.00682 -0.000798109 0.0 
0.0245136 0.00122542 0.0 
2.49095e-05 -2.64698e-06 0.0 
1 0.000171804 0.0 
0.690847 -0.0143661 0.0 
1.01137 -0.0134039 0.0 
0.0631549 -0.0203456 0.0 
1.00778 -0.00513475 0.0 
1.00083 0.000467805 0.0 
1.00333 0 0.0 
1.00607 7.8065e-05 0.0 
0.914603 0.0302706 0.0 
0.578698 0.182844 0.0 
0.656577 0.0110386 0.0 
0.612239 -0.431366 0.0 
1.00603 -0.000396141 0.0 
1.00503 -0.000183221 0.0 
0.231368 -0.0506458 0.0 
1.00124 -0.00226623 0.0 
0.00303817 -0.000670894 0.0 
0.0469388 -0.00803472 0.0 
1.00885 0.000169656 0.0 
1.00828 -0.000963046 0.0 
1.00714 -0.000506173 0.0 
1.00381 -0.0017376 0.0 
0.974209 -0.0229251 0.0 
0.413543 -0.123291 0.0 
1.00051 -0.00566966 0.0 
0.16576 0.00493186 0.0 
0.844524 6.85392e-05 0.0 
1.00097 -0.000853516 0.0 
1.00012 -0.000687498 0.0 
0.939801 -0.283587 0.0 
0.999478 0.000171094 0.0 
1.00434 -0.000837383 0.0 
0.157192 0.00865455 0.0 
1.00648 -0.00087969 0.0 
1.00464 -0.00348558 0.0 
1.00358 0.00444315 0.0 
0.999923 9.21225e-06 0.0 
0 0 0.0 
1.00029 0.000673204 0.0 
0.192264 0.0666192 0.0 
1.00991 -0.00362257 0.0 
1.00437 -0.000648484 0.0 
1.00007 0.00120155 0.0 
1.1144 0.0899714 0.0 
0.831089 0.333681 0.0 
1.00633 -0.000618148 0.0 
0.999966 0.000828786 0.0 
0.43513 0.0129777 0.0 
1.00648 -0.00066548 0.0 