<VTKFile type="UnstructuredGrid" version="0.1" byte_order="LittleEndian">
  <UnstructuredGrid>
    <Piece NumberOfPoints="13696" NumberOfCells="27203">
      <Points>
        <DataArray type = "Float64" NumberOfComponents="3" format="ascii">
0 0 0.0 
14 0 0.0 
14 8 0.0 
0 8 0.0 
4.00486 3.95977 0.0 
7.16593 4.22597 0.0 
4.52122 4.03751 0.0 
5.14255 4.10301 0.0 
0.382322 2.91093 0.0 
4.4137 4.03537 0.0 
4.22039 3.97489 0.0 
4.22308 4.09104 0.0 
4.07057 3.9639 0.0 
4.53824 7.43039 0.0 
6.70909 6.94059 0.0 
3.98741 4.04054 0.0 
3.98768 4.02653 0.0 
13.6419 7.13945 0.0 
4.2594 3.9902 0.0 
0 1.32412 0.0 
4.20537 3.96901 0.0 
4.16782 4.0433 0.0 
4.53739 4.00645 0.0 
4.67405 4.10923 0.0 
4.27628 3.98853 0.0 
4.80484 4.03022 0.0 
4.61584 4.00791 0.0 
3.87712 3.99789 0.0 
12.1265 0 0.0 
4.17901 4.03068 0.0 
4.07652 4.03511 0.0 
4.52396 4.00899 0.0 
4.47145 4.03392 0.0 
4.13489 4.05432 0.0 
4.48621 4.03462 0.0 
8.79181 7.69132 0.0 
4.04221 3.9916 0.0 
4.42837 4.03709 0.0 
4.1881 3.97952 0.0 
0 3.36284 0.0 
4.93697 3.93496 0.0 
6.95962 7.64891 0.0 
3.92859 5.87876 0.0 
4.27027 4.04303 0.0 
4.07091 4.07076 0.0 
4.0273 4.01367 0.0 
4.99086 3.94998 0.0 
4.0196 4.10188 0.0 
4.62342 4.01415 0.0 
3.93138 3.94846 0.0 
5.17517 4.1161 0.0 
4.24837 3.99051 0.0 
4.50799 4.02253 0.0 
4.14572 3.98608 0.0 
4.12607 4.05951 0.0 
4.53734 3.98763 0.0 
4.2483 4.03635 0.0 
4.0955 3.94899 0.0 
4.03444 4.04627 0.0 
4.00163 4.02959 0.0 
4.02005 3.99731 0.0 
5.23503 8 0.0 
4.30375 3.97965 0.0 
0 1.05171 0.0 
4.49561 3.9967 0.0 
5.35828 4.09214 0.0 
4.07963 4.00971 0.0 
5.18467 3.76578 0.0 
12.8262 0.365959 0.0 
13.0674 7.81526 0.0 
4.3308 4.04076 0.0 
4.00011 4.02449 0.0 
4.21509 3.9888 0.0 
4.23208 4.07441 0.0 
4.06521 4.00006 0.0 
4.54373 3.99899 0.0 
4.04672 4.0202 0.0 
4.94501 3.90266 0.0 
4.29401 3.99206 0.0 
4.54772 3.97659 0.0 
3.96947 4.02134 0.0 
2.15974 5.93568 0.0 
4.05493 4.11055 0.0 
3.96297 3.96024 0.0 
4.21254 3.97074 0.0 
4.15932 4.03394 0.0 
4.40453 3.99671 0.0 
4.11692 3.94964 0.0 
4.19281 3.98714 0.0 
3.95785 3.95439 0.0 
3.63168 3.86568 0.0 
4.02972 4.04518 0.0 
4.41952 3.99457 0.0 
3.97141 4.03046 0.0 
4.06762 3.97375 0.0 
3.97561 4.03322 0.0 
3.97816 4.02179 0.0 
4.04633 4.03304 0.0 
3.96767 4.02507 0.0 
4.53971 3.97638 0.0 
4.54929 4.03651 0.0 
9.43109 4.17565 0.0 
4.54225 3.97864 0.0 
4.52448 3.99879 0.0 
4.43352 4.48158 0.0 
4.54991 3.98013 0.0 
9.99539 4.75979 0.0 
4.3326 3.99285 0.0 
4.73521 7.52615 0.0 
4.04662 4.34735 0.0 
4.64857 3.98991 0.0 
5.2844 3.91484 0.0 
11.3713 7.83957 0.0 
4.21259 3.97823 0.0 
4.10199 3.96079 0.0 
4.06171 3.97809 0.0 
4.34903 4.01708 0.0 
4.11581 4.05249 0.0 
4.31989 4.03749 0.0 
4.41036 3.99571 0.0 
5.82559 5.71861 0.0 
4.09041 3.99334 0.0 
4.0703 4.03431 0.0 
4.00498 4.00961 0.0 
4.02424 4.00419 0.0 
8.40952 2.0809 0.0 
5.25357 4.08057 0.0 
4.05958 4.04239 0.0 
6.37297 2.73989 0.0 
6.50541 6.65271 0.0 
4.0914 3.96216 0.0 
4.16817 3.98694 0.0 
5.20281 3.96498 0.0 
4.57278 4.01593 0.0 
4.21643 3.66399 0.0 
4.65935 4.04515 0.0 
12.6474 3.41509 0.0 
4.05312 3.99197 0.0 
13.7435 8 0.0 
4.11702 4.02719 0.0 
6.67367 0 0.0 
4.00932 4.01975 0.0 
6.82471 4.26136 0.0 
4.20354 4.03712 0.0 
4.24232 3.97947 0.0 
7.09863 3.25558 0.0 
2.12545 0 0.0 
7.97633 2.05223 0.0 
4.01703 7.79668 0.0 
4.1296 3.98625 0.0 
4.32637 4.10272 0.0 
6.22735 7.50315 0.0 
5.45662 5.22808 0.0 
4.52413 4.00366 0.0 
9.77709 3.74876 0.0 
4.10551 3.98493 0.0 
8.95603 7.57132 0.0 
4.16395 4.15613 0.0 
1.03284 2.15008 0.0 
3.98122 4.01031 0.0 
11.5703 4.18823 0.0 
11.3933 4.0761 0.0 
10.4908 7.41058 0.0 
4.53944 3.99843 0.0 
4.17284 4.10258 0.0 
4.51749 3.99899 0.0 
3.92925 5.61587 0.0 
4.66537 4.02952 0.0 
4.54778 4.01674 0.0 
4.08927 3.9549 0.0 
4.22147 4.0961 0.0 
3.99732 3.99732 0.0 
4.10998 3.98407 0.0 
4.58865 4.06563 0.0 
4.09428 3.96323 0.0 
5.36295 4.11447 0.0 
3.98329 3.96013 0.0 
0 5.96416 0.0 
4.18332 3.96996 0.0 
4.51348 3.99716 0.0 
4.05908 4.0108 0.0 
4.09467 4.03941 0.0 
12.0372 1.49526 0.0 
4.04925 4.02939 0.0 
4.375 4.03296 0.0 
10.4619 3.53679 0.0 
4.94158 3.98327 0.0 
5.11537 3.91723 0.0 
4.41297 3.99711 0.0 
4.47302 3.99845 0.0 
6.38052 3.13775 0.0 
5.9291 5.15993 0.0 
3.77491 4.25842 0.0 
4.32046 1.78584 0.0 
9.4176 1.73395 0.0 
4.01397 4.00232 0.0 
5.24537 4.1668 0.0 
4.20501 3.97964 0.0 
9.80693 3.0901 0.0 
12.529 6.19703 0.0 
5.29469 4.0576 0.0 
8.35832 2.9685 0.0 
13.4699 7.45697 0.0 
4.52325 4.0305 0.0 
4.01229 3.97705 0.0 
4.06076 3.97364 0.0 
3.94265 3.95401 0.0 
4.5397 3.92793 0.0 
4.09808 4.03387 0.0 
4.1581 4.02632 0.0 
4.00577 3.97873 0.0 
4.46979 4.03982 0.0 
0.762019 5.13086 0.0 
4.20997 0.181458 0.0 
4.1403 4.03691 0.0 
7.62224 2.88267 0.0 
7.22419 0.703495 0.0 
4.18018 4.09126 0.0 
4.10257 3.98492 0.0 
3.99474 4.00051 0.0 
4.47991 4.00738 0.0 
4.01595 4.01614 0.0 
2.85028 3.42191 0.0 
5.8599 3.0813 0.0 
4.52947 3.99713 0.0 
4.22298 4.24051 0.0 
7.7278 7.63087 0.0 
4.55037 4.00822 0.0 
4.27385 3.99106 0.0 
4.6103 3.91602 0.0 
4.72674 4.01395 0.0 
4.38041 4.03239 0.0 
4.58487 4.50097 0.0 
4.11575 4.03408 0.0 
4.17803 3.98588 0.0 
4.20274 4.07949 0.0 
4.3757 4.03918 0.0 
12.5015 1.14918 0.0 
4.09797 3.95385 0.0 
4.23052 4.09368 0.0 
4.20868 4.08388 0.0 
4.14519 4.17518 0.0 
4.00079 4.008 0.0 
4.45076 4.02304 0.0 
4.21025 4.03415 0.0 
7.1544 4.87791 0.0 
4.6253 3.98271 0.0 
2.61514 0.506135 0.0 
4.88569 3.98105 0.0 
4.86181 5.24939 0.0 
13.4868 6.98366 0.0 
4.52686 4.01389 0.0 
8.82235 8 0.0 
3.59983 3.72262 0.0 
4.05731 4.02647 0.0 
4.2355 4.09935 0.0 
4.69512 3.9114 0.0 
4.90839 4.00372 0.0 
4.00988 3.97037 0.0 
3.90674 3.97638 0.0 
4.06329 4.04721 0.0 
4.10898 3.98599 0.0 
4.18805 3.96826 0.0 
4.65153 4.02457 0.0 
7.58471 5.24477 0.0 
4.06437 4.05592 0.0 
0.417479 6.31883 0.0 
4.00964 3.98933 0.0 
4.7389 4.07044 0.0 
4.02204 4.01739 0.0 
2.92108 4.80681 0.0 
3.98977 4.04663 0.0 
3.99153 4.04254 0.0 
4.57553 4.01147 0.0 
4.1039 3.99411 0.0 
14 3.6095 0.0 
4.05396 4.05241 0.0 
3.97296 4.00674 0.0 
11.3714 7.19716 0.0 
9.192 5.81999 0.0 
6.26265 7.14539 0.0 
3.53429 0 0.0 
4.67134 3.89044 0.0 
4.08953 4.02996 0.0 
11.016 2.69137 0.0 
2.30378 3.03595 0.0 
6.40969 2.27914 0.0 
4.06985 4.08972 0.0 
7.40997 8 0.0 
4.02321 3.97317 0.0 
2.86414 6.59491 0.0 
1.21506 8 0.0 
4.02416 3.98881 0.0 
4.70958 7.08222 0.0 
13.8261 5.94601 0.0 
4.51221 4.06036 0.0 
6.78993 2.13526 0.0 
3.10914 5.59567 0.0 
0.846754 0.565038 0.0 
4.4185 3.97288 0.0 
5.21878 3.99931 0.0 
4.9862 3.93198 0.0 
3.31161 1.01031 0.0 
7.59973 7.22298 0.0 
12.6277 1.80732 0.0 
14 4.58149 0.0 
5.85073 0.410811 0.0 
13.0902 7.46595 0.0 
4.18844 4.04292 0.0 
4.02912 3.96643 0.0 
3.9878 3.95947 0.0 
10.1785 4.3996 0.0 
12.0185 5.47286 0.0 
4.51303 3.98607 0.0 
13.0519 3.93435 0.0 
3.96066 4.00697 0.0 
4.00241 3.93804 0.0 
4.96395 4.01931 0.0 
13.1661 5.68046 0.0 
13.7895 0 0.0 
4.10795 4.02897 0.0 
4.68705 4.01621 0.0 
11.4357 2.10385 0.0 
10.4928 5.29986 0.0 
11.1865 7.25481 0.0 
4.00791 4.0033 0.0 
4.0088 3.9805 0.0 
9.75515 2.36072 0.0 
4.14091 4.04918 0.0 
7.69277 3.03514 0.0 
4.02947 3.97325 0.0 
13.8266 3.59413 0.0 
4.6454 3.91884 0.0 
4.01129 4.00596 0.0 
1.60222 4.99327 0.0 
4.49929 3.99747 0.0 
0.199854 7.79208 0.0 
4.5155 3.99842 0.0 
4.01755 3.97046 0.0 
4.52386 4.04096 0.0 
4.19569 4.09359 0.0 
4.51373 4.03327 0.0 
6.42419 4.18044 0.0 
4.01115 3.99128 0.0 
4.05373 4.0206 0.0 
4.0593 4.0207 0.0 
4.00773 4.00001 0.0 
4.96931 3.97465 0.0 
4.11868 3.97589 0.0 
4.15516 3.94365 0.0 
4.21078 3.98014 0.0 
4.01683 3.96357 0.0 
8.32777 8 0.0 
4.00813 4.01182 0.0 
4.01478 4.01537 0.0 
3.98474 3.78204 0.0 
4.76297 3.98343 0.0 
3.88486 3.53303 0.0 
4.00437 3.9841 0.0 
4.55145 4.028 0.0 
4.0134 3.97877 0.0 
3.03193 6.72582 0.0 
5.06501 4.08414 0.0 
4.01079 3.9893 0.0 
4.19227 4.0555 0.0 
4.36156 4.08272 0.0 
4.23775 3.9902 0.0 
4.84914 4.03247 0.0 
2.49698 3.5985 0.0 
10.2824 1.17531 0.0 
4.45455 2.45818 0.0 
4.21639 4.03358 0.0 
4.53823 4.02652 0.0 
4.00414 3.99309 0.0 
11.5792 7.84461 0.0 
0.551344 1.2516 0.0 
4.02575 3.96118 0.0 
11.8027 2.49668 0.0 
6.49849 5.21743 0.0 
4.77974 4.48805 0.0 
5.01113 4.1034 0.0 
8.48287 5.04599 0.0 
4.04278 3.98506 0.0 
4.50389 4.01169 0.0 
1.48233 7.50025 0.0 
11.8351 6.74811 0.0 
4.19894 4.03363 0.0 
4.1127 3.96242 0.0 
4.0605 4.07838 0.0 
4.15116 3.93854 0.0 
4.13176 4.07898 0.0 
10.2186 2.28825 0.0 
0.384822 4.35157 0.0 
4.42888 4.04389 0.0 
4.85957 4.01386 0.0 
4.23649 4.04288 0.0 
4.00279 3.99128 0.0 
4.05385 4.00986 0.0 
5.25032 1.89548 0.0 
13.611 1.35207 0.0 
3.10089 2.25184 0.0 
6.32476 7.00417 0.0 
12.5996 5.63737 0.0 
4.64409 4.00438 0.0 
4.2988 3.99252 0.0 
3.93595 4.15834 0.0 
3.58045 4.1959 0.0 
4.05099 4.00074 0.0 
6.49425 0.938237 0.0 
4.20862 3.97868 0.0 
11.5808 3.97719 0.0 
6.98728 5.60342 0.0 
4.68458 4.02212 0.0 
4.01425 3.98947 0.0 
3.96806 4.01296 0.0 
11.0968 5.75296 0.0 
3.92978 4.29206 0.0 
4.08053 4.05653 0.0 
4.35411 4.03483 0.0 
1.06432 1.49826 0.0 
3.69135 4.54481 0.0 
4.5467 4.03146 0.0 
3.95624 4.79952 0.0 
4.04817 3.98751 0.0 
4.53595 4.04072 0.0 
7.20657 5.05296 0.0 
3.05391 4.40989 0.0 
4.36411 4.03305 0.0 
13.1818 2.98063 0.0 
4.46542 3.99782 0.0 
4.53323 4.0151 0.0 
4.71924 4.00853 0.0 
0.198711 3.79297 0.0 
4.72583 0.194576 0.0 
0.348252 3.38746 0.0 
4.84809 6.69312 0.0 
4.35006 4.71292 0.0 
5.30927 0.171783 0.0 
9.00343 4.86475 0.0 
3.77134 4.0081 0.0 
1.21408 1.2833 0.0 
4.73668 3.89169 0.0 
4.04877 3.98924 0.0 
3.96886 4.00175 0.0 
4.64006 3.99672 0.0 
4.36261 4.03666 0.0 
9.69483 7.24214 0.0 
4.47088 4.06221 0.0 
4.25182 3.98715 0.0 
4.82507 4.1106 0.0 
10.6153 7.62373 0.0 
4.38666 4.07986 0.0 
0.347962 1.57688 0.0 
4.53866 4.03297 0.0 
6.52781 1.51786 0.0 
8.91842 0.967714 0.0 
7.78364 0 0.0 
6.32437 6.34013 0.0 
4.90954 3.97583 0.0 
5.62592 4.80931 0.0 
4.7383 3.87602 0.0 
4.32431 3.99216 0.0 
3.45143 4.08763 0.0 
1.64832 6.43608 0.0 
13.7604 0.5867 0.0 
10.1097 4.21913 0.0 
6.64238 0.26606 0.0 
4.16979 4.03888 0.0 
4.25841 3.96952 0.0 
4.03014 4.02376 0.0 
6.20333 4.3105 0.0 
4.0104 4.03331 0.0 
4.21557 3.97352 0.0 
3.89408 4.12152 0.0 
13.1592 5.25121 0.0 
[...]
<PointData>
  <DataArray type = "Float64" Name="Vitesse" NumberOfComponents="3" format="ascii">
1 0 0.0 
1.00093 0 0.0 
0.999792 0 0.0 
1 0 0.0 
0.950531 -0.262632 0.0 
0.999644 -0.00341486 0.0 
0.21684 -0.0246245 0.0 
0.903299 -0.0173668 0.0 
0.999969 -0.000134295 0.0 
0.0876011 -0.0097181 0.0 
0.300446 0.0052554 0.0 
1.05377 0.058481 0.0 
0.874423 -0.0941751 0.0 
1.00516 0.000684928 0.0 
1.00604 -0.000545034 0.0 
0.774615 0.19761 0.0 
0.682825 0.189341 0.0 
0.999776 -0.000122579 0.0 
0.0156059 0.00138566 0.0 
1 0 0.0 
0.433143 0.00334378 0.0 
4.29371e-05 -3.01745e-06 0.0 
0.00221307 -0.000417739 0.0 
0.959697 -0.0454035 0.0 
0.0531855 0.00239825 0.0 
0.37217 -0.0173109 0.0 
0.118124 -0.00180654 0.0 
0.900127 -0.00930383 0.0 
1.00209 0 0.0 
0 0 0.0 
0.0800477 0.0177626 0.0 
0.00250619 -0.000404944 0.0 
0.131375 -0.0155344 0.0 
0.540029 0.0599192 0.0 
0.15337 -0.0179922 0.0 
1.00376 -0.000381225 0.0 
1.55115e-106 -1.11656e-107 0.0 
0.123402 -0.0138256 0.0 
0.196726 0.00431525 0.0 
1 0 0.0 
0.804833 0.0187589 0.0 
1.00549 -0.000201576 0.0 
1.00648 0.00509574 0.0 
0.029287 -0.00229652 0.0 
1.04793 0.241627 0.0 
0 0 0.0 
0.706635 0.0164671 0.0 
0.964383 0.182262 0.0 
0.132434 -0.00993091 0.0 
0.8919 -0.0816813 0.0 
0.943599 -0.0161496 0.0 
0.000119319 1.06635e-05 0.0 
0.0638282 -0.00940859 0.0 
0.0260426 0.00190697 0.0 
0.762721 0.104652 0.0 
0.181226 0.00524583 0.0 
0 0 0.0 
1.03215 -0.0970594 0.0 
0.925469 0.316176 0.0 
0.720568 0.309488 0.0 
0 0 0.0 
1.00554 0 0.0 
0.221564 0.00594936 0.0 
1 0 0.0 
0.0263018 0.000737337 0.0 
0.857936 -0.0131188 0.0 
0 0 0.0 
1.00992 0.00683212 0.0 
1.00154 0.000247026 0.0 
0.999945 -4.85989e-05 0.0 
0.0622027 -0.00581664 0.0 
0.660496 0.311116 0.0 
0.0170855 0.0008773 0.0 
0.805114 0.0263268 0.0 
0 0 0.0 
0.00578082 -0.000169757 0.0 
0 0 0.0 
0.948717 0.0167122 0.0 
0.00859087 0.00105847 0.0 
0.348233 0.0150254 0.0 
0.7258 0.0675139 0.0 
1.00077 0.0026465 0.0 
1.01798 0.182615 0.0 
0.859795 -0.137252 0.0 
0.391762 0.00455398 0.0 
0 0 0.0 
0.00042212 1.34708e-05 0.0 
0.981106 -0.0677864 0.0 
0.034834 0.00108844 0.0 
0.874416 -0.1247 0.0 
0.971959 -0.0110289 0.0 
0.913415 0.323871 0.0 
0.0305244 0.000600852 0.0 
0.75068 0.107166 0.0 
0.54374 -0.0431794 0.0 
0.751301 0.131491 0.0 
0.686685 0.104974 0.0 
0.433351 0.133323 0.0 
0.744284 0.0770155 0.0 
0.346723 0.0124983 0.0 
0.230162 -0.0298761 0.0 
0.973422 -0.0114652 0.0 
0.316042 0.0119519 0.0 
-2.98302e-42 -1.78262e-43 0.0 
1.03834 0.00959688 0.0 
0.299559 0.0140367 0.0 
1.00025 -0.0063552 0.0 
0.0134309 0.00136735 0.0 
1.00531 0.00048832 0.0 
1.01925 0.0565162 0.0 
0.248043 0.0192662 0.0 
0.887163 0.00944078 0.0 
1.0008 -0.000127461 0.0 
0.228464 0.00509047 0.0 
0.818185 -0.0536747 0.0 
0.381379 -0.0275727 0.0 
0 0 0.0 
0.583671 0.0838231 0.0 
2.09985e-06 -1.36626e-07 0.0 
0.0101684 0.000797733 0.0 
1.00896 -0.000986927 0.0 
-4.92591e-171 -2.85909e-173 0.0 
0.124908 0.0337327 0.0 
0.0696275 0.0584145 0.0 
0 0 0.0 
1.00569 0.00115986 0.0 
0.80692 -0.015623 0.0 
0.691331 0.181422 0.0 
1.00772 0.000716594 0.0 
1.00648 -0.000633471 0.0 
0.823799 -0.0632429 0.0 
0.0209845 0.00177614 0.0 
0.638108 0.00967486 0.0 
0.0737108 -0.0240131 0.0 
1.02993 -0.0322324 0.0 
0.396799 -0.0358889 0.0 
0.99941 0.00232963 0.0 
0 0 0.0 
0.999826 0 0.0 
0 0 0.0 
1.00539 0 0.0 
0.529472 0.308045 0.0 
1.00721 -0.00335835 0.0 
-2.86504e-248 -3.16254e-250 0.0 
0.209101 0.00478459 0.0 
1.00751 0.00128478 0.0 
1.00092 0 0.0 
1.00597 0.000916862 0.0 
1.00425 0.000306777 0.0 
0.0150838 -0.000394177 0.0 
1.0474 0.00396264 0.0 
1.00586 -0.00010075 0.0 
1.01126 -0.00175568 0.0 
-3.67688e-131 7.8725e-133 0.0 
0.984116 0.00350558 0.0 
0.030533 0.0015681 0.0 
1.00356 -0.000538817 0.0 
1.09072 0.0996433 0.0 
0.999982 -0.000610799 0.0 
0.605158 0.033258 0.0 
0.989077 0.000600415 0.0 
0.985918 0.00224711 0.0 
1.0016 -0.000655381 0.0 
0.0128823 -0.00101296 0.0 
1.12169 0.112829 0.0 
0.0003136 -1.18568e-06 0.0 
1.00724 0.00667854 0.0 
0.256241 -0.022632 0.0 
0.0605989 -0.0120635 0.0 
0.979557 -0.092574 0.0 
1.08799 0.0649021 0.0 
0.2783 -0.329674 0.0 
0.0588995 3.5547e-05 0.0 
0.605343 -0.0504176 0.0 
0.783147 -0.0545779 0.0 
0.931517 -0.0123231 0.0 
0.874644 -0.202992 0.0 
1 0 0.0 
0.422713 0.00237083 0.0 
0.0264503 0.00164105 0.0 
0 0 0.0 
0.137219 0.0205674 0.0 
1.00195 0.0013249 0.0 
0.131136 0.0382552 0.0 
0.0126719 -0.00163846 0.0 
1.00799 0.00405515 0.0 
0.47036 0.0104598 0.0 
0.887441 0.0121365 0.0 
-8.43079e-45 -6.21748e-46 0.0 
0.000488627 1.67007e-05 0.0 
1.00842 0.000913312 0.0 
1.00952 -0.00258114 0.0 
0.976957 0.0359662 0.0 
1.00513 -0.00298495 0.0 
1.00477 0.00132976 0.0 
0 0 0.0 
1.00356 -0.0129186 0.0 
0.196969 0.00453024 0.0 
1.00504 0.00251909 0.0 
0.999634 -0.000587772 0.0 
0.691131 -0.0127618 0.0 
1.00621 0.00192319 0.0 
0.99983 -9.66653e-05 0.0 
0.145576 -0.0184717 0.0 
0.930884 -0.338977 0.0 
0.592033 -0.056615 0.0 
0.879283 -0.0954896 0.0 
0.897793 0.0187222 0.0 
0 0 0.0 
0 0 0.0 
0.895931 -0.385157 0.0 
0.196966 -0.0210438 0.0 
0.999927 0.000702184 0.0 
1.00367 -0.000248617 0.0 
0 0 0.0 
1.00678 0.00131692 0.0 
1.00553 8.23229e-05 0.0 
1.0958 0.102059 0.0 
0.0278208 0.000719006 0.0 
0.279727 -0.174254 0.0 
0 0 0.0 
0.0583673 0.0203445 0.0 
0.995673 -0.00345075 0.0 
1.00888 0.00091269 0.0 
0.0312524 0.00103 0.0 
1.07275 0.0539503 0.0 
1.00494 -0.000329039 0.0 
0.0196373 -0.0048009 0.0 
0.00873211 0.00119527 0.0 
0.950712 0.0268267 0.0 
0.245336 -0.00590106 0.0 
0.0131336 -0.00157244 0.0 
1.03316 -0.000822297 0.0 
0 0 0.0 
0.0524359 0.0022404 0.0 
0.951891 0.0618142 0.0 
0.0924371 -0.00913528 0.0 
1.00164 0.000878133 0.0 
0.969603 -0.0817875 0.0 
1.06524 0.0552934 0.0 
1.00135 0.0629623 0.0 
1.07384 0.100281 0.0 
0.179829 0.176138 0.0 
0.0117497 -0.00151884 0.0 
0 0 0.0 
1.0074 -0.00318384 0.0 
0.298659 0.0273147 0.0 
1.00142 -0.000603279 0.0 
0.460732 0.013712 0.0 
1.01375 0.0016263 0.0 
0.999772 -0.000163109 0.0 
0.0261347 -0.00435084 0.0 
1.00368 0 0.0 
0.981813 -0.0149167 0.0 
2.71578e-233 6.0199e-234 0.0 
1.09176 0.0563205 0.0 
0.950427 0.028211 0.0 
0.379999 0.00105959 0.0 
0.963905 -0.32508 0.0 
0.882488 -0.0376691 0.0 
0.816732 0.211281 0.0 
0.00103326 1.13825e-05 0.0 
0.460478 0.00155992 0.0 
0.209041 -0.0195335 0.0 
1.00684 -0.00303768 0.0 
0.977726 0.252431 0.0 
1.00003 0.000334171 0.0 
0.360998 -0.149548 0.0 
0.693704 -0.0396291 0.0 
-3.92737e-50 -1.57058e-50 0.0 
0.997473 0.00676595 0.0 
0.804892 0.205495 0.0 
0.787467 0.217468 0.0 
0.0578805 -0.0182499 0.0 
-7.41749e-174 -5.39636e-176 0.0 
0.999673 0.000732416 0.0 
0.962182 0.273384 0.0 
0.675415 -0.0141325 0.0 
1.00069 -0.00064129 0.0 
1.00346 -0.00337376 0.0 
1.00608 -0.00022402 0.0 
1.00269 0 0.0 
1.01024 0.0239875 0.0 
0 0 0.0 
1.00328 0.00326102 0.0 
0.998495 -0.00207011 0.0 
1.00717 0.000277252 0.0 
1.04502 0.211617 0.0 
1.00511 0 0.0 
0.950681 -0.258893 0.0 
1.00239 0.00248586 0.0 
1.00042 0 0.0 
2.46813e-12 -3.69235e-13 0.0 
1.00574 0.000984187 0.0 
0.99957 -0.00010438 0.0 
0.506665 -0.0406477 0.0 
1.00675 0.000396057 0.0 
1.0023 0.00584559 0.0 
1.00012 -0.000180342 0.0 
0.359098 0.00838405 0.0 
0.516372 0.00119338 0.0 
0.822787 0.0171192 0.0 
1.00241 -0.00154316 0.0 
1.00515 -0.000672903 0.0 
1.00128 0.00135042 0.0 
0.999441 0.000294504 0.0 
1.00527 -0.00017721 0.0 
0.999907 -0.00013456 0.0 
0.000143928 1.92992e-07 0.0 
1.02133 -0.244647 0.0 
0.887005 -0.217342 0.0 
1.00006 -0.00708189 0.0 
0.999183 -0.00106251 0.0 
0.192403 0.00514448 0.0 
0.998783 0.00106897 0.0 
0.747507 -0.0126895 0.0 
0.965872 -0.189344 0.0 
0.421327 -0.00712573 0.0 
0.999412 -0.00026586 0.0 
1.00103 0 0.0 
0 0 0.0 
0.210995 -0.00843536 0.0 
1.0025 0.00224862 0.0 
1.00004 -0.00365673 0.0 
1.00086 -0.000644595 0.0 
0 0 0.0 
0.87851 -0.367486 0.0 
1.00475 0.00207443 0.0 
0.306037 0.0281446 0.0 
1.00709 0.00142465 0.0 
0.899649 -0.208176 0.0 
0.999619 0.000817087 0.0 
0.927908 0.0291478 0.0 
0 0 0.0 
0.999566 0.00177058 0.0 
0.0157914 6.19865e-05 0.0 
1.00001 2.17316e-05 0.0 
0.00891736 0.000239691 0.0 
0.99509 -0.302223 0.0 
0.259261 -0.0280563 0.0 
1.09537 0.0880193 0.0 
0.164392 -0.0198854 0.0 
0.992886 -0.00445646 0.0 
2.96069e-06 -8.50715e-07 0.0 
0 0 0.0 
0 0 0.0 
0 0 0.0 
0.531403 0.0130287 0.0 
0.314501 -0.00169199 0.0 
0.979379 -0.0465342 0.0 
0.187855 0.0047424 0.0 
1.00647 -0.280671 0.0 
1.00425 0 0.0 
0.0804815 0.0456681 0.0 
9.31362e-279 3.26106e-279 0.0 
0.996443 -0.0643204 0.0 
0.382289 0.0176558 0.0 
0.999308 -0.0272374 0.0 
0.805191 -0.413551 0.0 
0.148178 -0.0237234 0.0 
0.8927 -0.31902 0.0 
1.00274 0.00231528 0.0 
0.819799 -0.0215325 0.0 
0.312672 -0.112726 0.0 
0.380225 0.0154696 0.0 
0.8223 -0.0217103 0.0 
-1.20242e-44 -1.11347e-45 0.0 
0.413413 -0.0166166 0.0 
0.996433 -0.00109365 0.0 
1.00382 0.00106962 0.0 
1.00751 -0.00483478 0.0 
0 0 0.0 
0.123416 -0.0178206 0.0 
0.253449 -0.175519 0.0 
1.00065 -0.000112257 0.0 
1.00004 -0.000232815 0.0 
1.03661 -0.252743 0.0 
1.00174 0.00266836 0.0 
1.0082 -0.00245529 0.0 
1.02575 -0.00788789 0.0 
0.910825 -0.0221531 0.0 
1.0058 -0.00469008 0.0 
0.103124 -0.015808 0.0 
-1.27135e-45 1.61756e-46 0.0 
1.00059 0.000417295 0.0 
1.00018 -0.000761041 0.0 
0 0 0.0 
0.740687 -0.0367462 0.0 
1.03175 0.2358 0.0 
1.02904 -0.0559125 0.0 
1.07146 0.153541 0.0 
1.00425 0.00221853 0.0 
0.99996 0.000204401 0.0 
0.212303 -0.0204206 0.0 
0.348727 -0.00499773 0.0 
1.91585e-06 3.45704e-08 0.0 
0.5 -0.352564 0.0 
0 0 0.0 
1.00683 -0.00144488 0.0 
1.00089 0.000661268 0.0 
1.00124 -0.00401328 0.0 
1.00621 -0.000316728 0.0 
0.999313 -0.000563688 0.0 
0.162608 0.00413966 0.0 
9.86832e-05 1.11707e-05 0.0 
0.954649 0.085956 0.0 
0.977429 0.015708 0.0 
-2.32063e-272 1.79125e-273 0.0 
1.0057 -8.51551e-05 0.0 
0.218266 0.00482809 0.0 
0.988817 0.00340998 0.0 
1.00728 -0.00208276 0.0 
0.229767 -0.0145064 0.0 
0.154278 -0.0292891 0.0 
0.713719 0.0219853 0.0 
0.999882 -0.00206867 0.0 
0.993268 0.0590879 0.0 
0.92993 0.208057 0.0 
0.00989866 -0.000812515 0.0 
1.00012 -0.000549203 0.0 
0.997034 0.0235702 0.0 
0.176196 -0.0248645 0.0 
1.01045 0.0195563 0.0 
1.87044e-05 -9.67478e-07 0.0 
0.26637 -0.0298024 0.0 
1.00737 -0.00295234 0.0 
0.993628 0.00668649 0.0 
8.88711e-07 -1.10604e-07 0.0 
0.999997 0.00149267 0.0 
0.000249185 1.68869e-05 0.0 
0.037821 -0.00624906 0.0 
0.23502 -0.000717034 0.0 
0.999992 2.95735e-05 0.0 
1.00434 -0.000223186 0.0 
0.999969 -3.79708e-05 0.0 
1.00659 0.00123637 0.0 
1.02509 0.0133203 0.0 
1.0049 -0.000134306 0.0 
1.00442 -0.00587626 0.0 
0.944633 0.00105316 0.0 
1.0002 -0.000569779 0.0 
0.996339 0.0234 0.0 
1.37239e-96 -9.87887e-98 0.0 
0.706814 -0.0458269 0.0 
0.190896 0.0130149 0.0 
0.0434718 -0.00359712 0.0 
1.00257 -0.000978389 0.0 
0.51248 -0.0372577 0.0 
0.0654572 0.00283005 0.0 
0.945233 -0.0336401 0.0 
1.00149 -0.00039806 0.0 
0.771835 -0.0281919 0.0 
1.00001 -0.000168358 0.0 
0.184073 -0.0238361 0.0 
1.0062 -6.5141e-06 0.0 
1.0049 0.000612478 0.0 
1.00527 0 0.0 
1.00704 -0.000769784 0.0 
0.504266 0.0140228 0.0 
1.01125 -0.00412849 0.0 
1.01543 0.0208765 0.0 
0.0199572 0.0012027 0.0 
0.980874 0.00547004 0.0 
1.00057 0.0014375 0.0 
1.00098 0.000276342 0.0 
0.975862 -0.0108831 0.0 
1.00543 -2.04482e-05 0.0 
0 0 0.0 
0.40781 0.005772 0.0 
0.182216 0.061653 0.0 
1.00776 -0.00445058 0.0 
0.785167 0.342848 0.0 
0.330191 0.00514495 0.0 
0.931966 0.0635978 0.0 
0.999197 -0.000157982 0.0 
0.00734742 0.000651168 0.0 
0.604176 -0.0472506 0.0 
0.0344131 0.0130086 0.0 
0.793342 -0.0411424 0.0 
0.0358775 0.000681761 0.0 
0.985243 0.045406 0.0 
0.106603 0.00301968 0.0 
0.970242 0.0980945 0.0 
0 0 0.0 
0.543841 0.00996047 0.0 
1.00541 1.05338e-05 0.0 
0.212417 0.00563248 0.0 
1.00105 -0.0071177 0.0 
0.999201 -0.000320432 0.0 
0.0448588 -0.00453574 0.0 
0.875665 -0.0770368 0.0 
1.00576 0.00170354 0.0 
1.01006 -0.00313805 0.0 
1.00533 0.00244545 0.0 
1.00543 1.464e-05 0.0 
1.01711 0.0172126 0.0 
0 0 0.0 
1.00437 -0.00126107 0.0 
0.754285 0.0258574 0.0 
0.0155984 0.000508089 0.0 
0.86707 -0.0505592 0.0 
1.00523 0.00231382 0.0 
1.00605 0.00230773 0.0 
1.0018 0.00352788 0.0 
1.00436 0.00100503 0.0 
0.0119625 -0.0018793 0.0 
0.803229 0.319203 0.0 
0.060727 -0.00301152 0.0 
0.524927 0.0345736 0.0 
0.343386 0.0105213 0.0 
1.01883 0.220783 0.0 
0.04176 0.00250887 0.0 
0.000756866 7.86165e-05 0.0 
0.254564 -0.049428 0.0 
0.00160167 5.61179e-05 0.0 
0.78913 -0.0522708 0.0 
0.959858 -0.0248941 0.0 
0.0267517 0.00063275 0.0 
0.610565 0.0034376 0.0 
0.693019 0.000972703 0.0 
1.00011 0.000800609 0.0 
0.99982 -2.79174e-05 0.0 
0 0 0.0 
-7.87866e-176 -2.36285e-176 0.0 
1.00232 0.000573486 0.0 
0.998177 -0.00239315 0.0 
1.0043 -0.0013748 0.0 
0.962322 -0.283652 0.0 
1.00081 0.000413973 0.0 
0.924824 -0.305589 0.0 
0.997321 -0.000776837 0.0 
0.999359 0.000722005 0.0 
1.00651 0.000521931 0.0 
0 0 0.0 
1.00002 -0.000182479 0.0 
1.00684 -0.00203867 0.0 
0.856196 0.0116981 0.0 
1.00497 0.00411324 0.0 
0.228134 0.0228149 0.0 
1 0.000128428 0.0 
1.00836 0.00511349 0.0 
0.0429085 -0.00222949 0.0 
1.00024 0.000355629 0.0 
1.00043 0.00309844 0.0 
1.00151 0 0.0 
1.00283 -0.000683663 0.0 
1.01013 0.0040703 0.0 
0.14843 -0.00219411 0.0 
1.01821 0.0099606 0.0 
1.02715 -0.101023 0.0 
0.636742 0.0147365 0.0 
1.00336 0.000367422 0.0 
0.705284 0.0907774 0.0 
1.00115 0.00170744 0.0 
1.00162 0.00320727 0.0 
1.00625 -0.0010815 0.0 
0.578886 0.071731 0.0 
1.00833 0.00140555 0.0 
1.00252 -0.00940488 0.0 
1.00006 -0.000440623 0.0 
1.00458 0.00130838 0.0 
1.00901 0.00232894 0.0 
0.963637 -0.00642143 0.0 
1.00003 0.000303652 0.0 
1.00438 0.00255212 0.0 
1.16843e-06 -2.42036e-08 0.0 
1.00682 -0.000338226 0.0 
1.02112 0.00078626 0.0 
0.989436 -0.0105666 0.0 
1.00829 -0.00718067 0.0 
1.00517 -0.000131638 0.0 
0.532679 0.00219316 0.0 
0.0186533 0.001604 0.0 
1.00448 -0.0055908 0.0 
1.0022 0.000770849 0.0 
0.0376519 0.00166904 0.0 
0.384916 -0.0108751 0.0 
1.12164 0.0823233 0.0 
0.999594 0.000639881 0.0 
0.998951 -0.000202788 0.0 
0.994845 -0.0163913 0.0 
1.00713 -0.00280816 0.0 
1.00051 0.206048 0.0 
0 0 0.0 
0.0311415 0.000554361 0.0 
0.224111 -0.00572634 0.0 
0.844733 -0.0236438 0.0 
0.136269 0.00440107 0.0 
0.332577 -0.00585443 0.0 
1.00258 0.000348557 0.0 
0.167261 0.010477 0.0 
1.0023 0.000181687 0.0 
0.94248 -0.0378831 0.0 
0.20401 0.0174031 0.0 
1.03077 -0.0259726 0.0 
1.00131 0.00538489 0.0 
0.000134567 -1.09648e-05 0.0 
1.00021 0.00258767 0.0 
1.00391 0.000245976 0.0 
0 0 0.0 
0.285297 -0.0410931 0.0 
0.0161162 -0.00263487 0.0 
0.999929 0.000838822 0.0 
0.0662177 0.00143913 0.0 
1.0071 0.000867624 0.0 
0.256448 0.0226401 0.0 
0.869324 -0.0165069 0.0 
0.86269 0.0304923 0.0 
0.237785 -0.0247382 0.0 
1.0017 0.00169825 0.0 
0.0307636 -0.0168627 0.0 
0.453033 -0.307355 0.0 
0.0511897 -0.00121179 0.0 
0.916373 -0.0042283 0.0 
0.406988 -0.0154304 0.0 
0.703482 -0.00489312 0.0 
0.990527 -0.00342452 0.0 
0.999226 0.000903617 0.0 
0.998877 -0.000420964 0.0 
1.00721 0.00103395 0.0 
1.00615 -0.0450694 0.0 
1.00519 0.00211393 0.0 
0.918424 -0.00444061 0.0 
1.00932 -0.00378904 0.0 
1.00499 -0.00238306 0.0 
0.970325 0.0436831 0.0 
0.998906 0.00446954 0.0 
1.0006 0.00106682 0.0 
0.00996284 0.000518175 0.0 
1.00171 -0.000497851 0.0 
0.823164 -0.00379506 0.0 
0.999255 0.000304843 0.0 
0.0096925 0.000938014 0.0 
1.00557 -0.000133367 0.0 
1.00464 -0.00274923 0.0 
0.271355 -0.0226398 0.0 
0.962432 -0.0565132 0.0 
0.99954 -0.000191674 0.0 
1 3.7932e-05 0.0 
1.00577 0.00138786 0.0 
2.23188e-282 7.81468e-283 0.0 
0.0545938 -0.0008863 0.0 
1.03041 0.0128596 0.0 
1 0.000231727 0.0 
1.0134 -0.00562468 0.0 
0.999862 -0.000114685 0.0 
1 -0.000943763 0.0 
0.961855 -0.0446575 0.0 
0.213794 0.00562258 0.0 
0.00665213 -0.000692745 0.0 
0.130865 -0.0176055 0.0 
0.999733 -0.0032839 0.0 
1.00368 -0.00301739 0.0 
0.955794 0.0282096 0.0 
1.00271 0.0036831 0.0 
1.00718 -0.00122664 0.0 
1.00614 0.00102523 0.0 
-1.22258e-169 1.47208e-170 0.0 
1.00078 0.00125159 0.0 
0.000242686 -2.49495e-05 0.0 
-5.33692e-47 8.22783e-48 0.0 
0.999647 -0.000193672 0.0 
1.00166 0.000227041 0.0 
0.00704936 -0.00128722 0.0 
0.0283989 0.000867764 0.0 
0.97055 -0.0277765 0.0 
1.00001 -0.000258239 0.0 
0.813349 0.0141813 0.0 
0.882887 0.241855 0.0 
0.861887 0.0313852 0.0 
-4.64524e-55 -9.14168e-56 0.0 
1.00753 0.0011004 0.0 
1.0087 -5.01645e-05 0.0 
1.00842 0.00179866 0.0 
0.815567 -0.0266441 0.0 
0.0146838 0.000791921 0.0 
0.723868 -0.0309165 0.0 
1.0014 0 0.0 
1.00574 0.00181626 0.0 
0.402652 0.00499666 0.0 
1.00695 0.00105045 0.0 
0.432122 0.00793081 0.0 
0 0 0.0 
0.999128 0.000411012 0.0 
0.99909 -0.00481199 0.0 
1.00545 4.17865e-05 0.0 
0.999529 -0.00117611 0.0 
1.00539 -0.000259701 0.0 
0.999456 -0.00021489 0.0 
0.999915 -0.00116903 0.0 
0.182014 0.000389781 0.0 
1.00407 0.00240596 0.0 
0.0299583 0.000431493 0.0 
1.00073 0.000940395 0.0 
0.99996 -0.00138373 0.0 
0.389226 0.00545284 0.0 
1.00178 -0.000481271 0.0 
1.00445 0.00173189 0.0 
0.0733005 -0.0289898 0.0 
0.88428 0.040208 0.0 
0.920231 -0.0252137 0.0 
0.999945 -0.00049454 0.0 
1.12563 0.0856664 0.0 
0.894 0.0141298 0.0 
0.999977 7.77757e-06 0.0 
1.00007 -0.000686095 0.0 
1.01199 0.00154876 0.0 
1.0013 -0.000552681 0.0 
0.92763 -0.164012 0.0 
1.0026 0.000853757 0.0 
0.816632 0.126983 0.0 
0.995366 -0.0073557 0.0 
0.2746 0.00431936 0.0 
0.31679 0.04325 0.0 
0.418098 0.00195225 0.0 
0.999498 -5.16365e-05 0.0 
0.99936 0.00147378 0.0 
0.435006 -0.00142067 0.0 
1.00785 -0.000422549 0.0 
1.00128 -0.00658161 0.0 
0.115087 -0.00150463 0.0 
1.00536 -0.00074542 0.0 
1.07165 0.0776999 0.0 
1.0041 -0.00245497 0.0 
0.123461 0.0509436 0.0 
1.0009 0.016849 0.0 
0.635463 0.03411 0.0 
0.834868 0.117611 0.0 
0.999696 -0.000393583 0.0 
1.00627 -0.0013026 0.0 
1.00661 0.00118583 0.0 
1.01221 -0.00272683 0.0 
0.00220332 -0.000616246 0.0 
0.334369 -0.0015802 0.0 
0.354486 -0.0017919 0.0 
1.00387 0.000739122 0.0 
0.0365304 -0.00717453 0.0 
1.00632 0.000592017 0.0 
0.788161 0.141218 0.0 
0.999878 -0.00239257 0.0 
1.00568 -0.000461693 0.0 
1.00505 0.000886983 0.0 
1.04013 -0.00257418 0.0 
1.0069 0.000883293 0.0 
1.00007 -0.000221359 0.0 
0.347093 0.000992411 0.0 
1.00587 -0.00359561 0.0 
0.585342 -0.00177488 0.0 
0.794778 -0.00115512 0.0 
0.999832 -0.000281382 0.0 
0.997689 0.00434507 0.0 
0.892479 -0.0517152 0.0 
1.00001 -0.000132511 0.0 
1.00045 -0.00129921 0.0 
0.0119754 -0.00211073 0.0 
0.0196391 -1.92027e-05 0.0 
0.913627 -0.0159488 0.0 
1.0032 0.00217977 0.0 
1.00464 0.00309327 0.0 
0.179294 -0.0197552 0.0 
-3.50275e-274 -7.04991e-276 0.0 
0.755977 0.011974 0.0 
0.836163 -0.051607 0.0 
1 -0.000252538 0.0 
0.323054 -0.234641 0.0 
0.390198 0.0866138 0.0 
0.999479 4.18363e-05 0.0 
0.0258085 0.00125907 0.0 
1.00257 0.00995082 0.0 
0.401157 0.0157645 0.0 
0.999712 0.00504256 0.0 
1.10662 0.0975482 0.0 
0.000950669 1.05836e-05 0.0 
1.00004 -0.000184948 0.0 
1.00021 -0.000707697 0.0 
0 0 0.0 
0.0223706 0.00126333 0.0 
1 0 0.0 
0.236449 0.00420678 0.0 
0.0107274 0.000223444 0.0 
0.214687 0.0684052 0.0 
0.999795 -0.000803682 0.0 
1.05556 0.0986429 0.0 
9.20229e-05 -1.19766e-05 0.0 
0.886295 -0.0552326 0.0 
0.0151884 -0.0279577 0.0 
1.00269 0.000665829 0.0 
0.645103 -0.0271824 0.0 
0.082705 0.00588972 0.0 
1.00079 0 0.0 
0.999117 0.00114989 0.0 
0.914969 -0.372983 0.0 
0.14062 -0.0177551 0.0 
0.99921 -0.000690636 0.0 
0.0114008 0.000963594 0.0 
1.02693 -0.0376471 0.0 
0.417559 0.0274939 0.0 
1.00046 0.00234358 0.0 
0.167633 0.0509553 0.0 
1.00657 0.00142539 0.0 
0.0258716 0.00139754 0.0 
0.997534 0.012322 0.0 
1.00108 -0.0006097 0.0 
0.999765 0.00185007 0.0 
0.0809716 -0.0099692 0.0 
1.00194 0.000122953 0.0 
8.35314e-06 3.00375e-07 0.0 
1.00527 0 0.0 
0.883965 -0.0206111 0.0 
0.788343 0.0329567 0.0 
0.0472332 -0.000819489 0.0 
1.00064 0.00134768 0.0 
1.00756 0.00144089 0.0 
0.061096 -0.0132183 0.0 
1.117 0.0439838 0.0 
1.00566 0.00151764 0.0 
0.123192 0.0310427 0.0 
1.00469 0.00203911 0.0 
0.706202 0.0132947 0.0 
1.00559 -0.0030067 0.0 
0 0 0.0 
1.00242 -0.00317885 0.0 
0.153706 -0.0396328 0.0 
0.000565738 -1.42855e-05 0.0 
1.01189 -0.0135523 0.0 
0.99917 0.000563066 0.0 
1.04071 0.0237216 0.0 
1.00535 -0.00213099 0.0 
1.00327 0 0.0 
1.00422 0.000684242 0.0 
0.915078 0.0303031 0.0 
1.00529 0.000124474 0.0 
0.657593 0.0110742 0.0 