<VTKFile type="UnstructuredGrid" version="0.1" byte_order="LittleEndian">
  <UnstructuredGrid>
    <Piece NumberOfPoints="13532" NumberOfCells="26875">
      <Points>
        <DataArray type = "Float64" NumberOfComponents="3" format="ascii">
0 0 0.0 
14 0 0.0 
14 8 0.0 
0 8 0.0 
0.383893 2.91152 0.0 
4.45409 2.45801 0.0 
6.98691 2.68677 0.0 
4.00297 4.12044 0.0 
4.58716 3.08809 0.0 
4.55171 4.00358 0.0 
4.51881 4.031 0.0 
4.07057 3.9639 0.0 
4.53824 7.43039 0.0 
3.93283 3.96019 0.0 
3.98741 4.04054 0.0 
3.98768 4.02653 0.0 
6.52781 1.51786 0.0 
6.16857 4.52041 0.0 
4.08912 3.98535 0.0 
4.00988 3.97036 0.0 
5.25251 4.08103 0.0 
4.47538 4.03375 0.0 
4.67405 4.10923 0.0 
4.1789 4.0308 0.0 
4.80484 4.03022 0.0 
4.61584 4.00791 0.0 
12.1265 0 0.0 
12.6381 7.48703 0.0 
4.53576 4.02646 0.0 
4.30241 3.97961 0.0 
4.44103 3.99526 0.0 
4.13489 4.05432 0.0 
7.58425 5.24486 0.0 
4.88569 3.98105 0.0 
10.4453 3.51654 0.0 
4.63883 4.00936 0.0 
8.48285 5.046 0.0 
0 3.36284 0.0 
4.93697 3.93496 0.0 
4.48014 4.00691 0.0 
3.59677 3.72318 0.0 
10.1734 4.4195 0.0 
4.0273 4.01367 0.0 
2.66716 0 0.0 
2.61514 0.506135 0.0 
4.62342 4.01415 0.0 
3.90879 3.9602 0.0 
5.17517 4.1161 0.0 
4.05101 4.00074 0.0 
4.1152 4.03957 0.0 
4.59796 4.5194 0.0 
4.12607 4.05951 0.0 
3.89132 6.82657 0.0 
4.2483 4.03635 0.0 
4.0955 3.94899 0.0 
4.03444 4.04627 0.0 
4.00163 4.02959 0.0 
4.02005 3.99731 0.0 
5.23503 8 0.0 
4.90839 4.00372 0.0 
3.9678 4.04964 0.0 
3.1002 2.25282 0.0 
5.35828 4.09214 0.0 
5.25032 1.89548 0.0 
3.10914 5.59567 0.0 
4.03688 3.99254 0.0 
4.00964 3.98933 0.0 
4.35473 4.03787 0.0 
4.29039 3.92587 0.0 
11.8702 0.212102 0.0 
4.98619 3.93198 0.0 
4.15825 4.03374 0.0 
4.04672 4.0202 0.0 
4.94501 3.90266 0.0 
4.51233 3.98653 0.0 
4.54772 3.97659 0.0 
3.96947 4.02134 0.0 
4.21303 3.97045 0.0 
5.28835 3.91341 0.0 
3.96297 3.96024 0.0 
4.09803 3.98339 0.0 
4.07174 4.09119 0.0 
4.01425 3.98947 0.0 
4.11692 3.94964 0.0 
3.31161 1.01031 0.0 
3.95785 3.95439 0.0 
4.09065 3.95069 0.0 
4.02972 4.04518 0.0 
4.19 4.04968 0.0 
3.97141 4.03046 0.0 
3.69215 4.54392 0.0 
3.97561 4.03322 0.0 
3.97816 4.02179 0.0 
4.04633 4.03304 0.0 
3.96767 4.02507 0.0 
4.53971 3.97638 0.0 
11.1865 7.25481 0.0 
4.50995 3.99786 0.0 
4.54225 3.97864 0.0 
4.15098 3.98566 0.0 
10.151 2.94081 0.0 
4.54991 3.98013 0.0 
4.11785 4.02706 0.0 
4.73521 7.52615 0.0 
4.47084 4.06165 0.0 
4.52549 3.98021 0.0 
4.1403 4.03691 0.0 
5.63968 3.98709 0.0 
11.7269 4.38481 0.0 
14 4.58151 0.0 
4.51886 3.99789 0.0 
4.07449 3.94324 0.0 
5.2927 4.05862 0.0 
13.1818 2.98063 0.0 
4.53801 4.03291 0.0 
9.69483 7.24214 0.0 
4.002 4.00265 0.0 
4.16311 4.04375 0.0 
8.67201 2.39205 0.0 
6.37297 2.73989 0.0 
6.50541 6.65271 0.0 
4.0914 3.96216 0.0 
4.62545 3.9826 0.0 
5.20281 3.96498 0.0 
4.15 4.0442 0.0 
4.27666 3.97922 0.0 
4.65935 4.04515 0.0 
4.71441 4.01913 0.0 
4.05312 3.99197 0.0 
13.7435 8 0.0 
4.03632 3.98654 0.0 
6.67367 0 0.0 
4.00932 4.01975 0.0 
6.82471 4.26136 0.0 
4.20354 4.03712 0.0 
3.84668 3.90466 0.0 
4.45469 4.00992 0.0 
4.11271 4.04576 0.0 
3.89744 5.36685 0.0 
4.00773 4.00001 0.0 
3.22012 3.32392 0.0 
13.1055 3.48759 0.0 
6.22735 7.50315 0.0 
1.77675 6.77593 0.0 
4.21339 4.02989 0.0 
4.35637 4.0349 0.0 
4.13371 3.98719 0.0 
8.95603 7.57132 0.0 
4.22222 4.09636 0.0 
3.98122 4.01031 0.0 
8.91842 0.967714 0.0 
9.65423 4.26818 0.0 
4.51289 3.99864 0.0 
13.5337 6.38237 0.0 
4.76297 3.98343 0.0 
13.1593 5.25114 0.0 
4.08943 3.95494 0.0 
4.54778 4.01674 0.0 
1.48228 7.4999 0.0 
4.51001 3.9984 0.0 
4.18075 4.21382 0.0 
6.21308 5.48605 0.0 
12.9422 5.39237 0.0 
4.09428 3.96323 0.0 
5.97375 5.37063 0.0 
3.88268 3.53342 0.0 
4.18332 3.96996 0.0 
4.00414 3.99309 0.0 
6.98728 5.60342 0.0 
4.84915 4.03246 0.0 
12.0372 1.49526 0.0 
9.70352 1.23095 0.0 
4.74535 3.98025 0.0 
1.21548 8 0.0 
4.05399 4.05242 0.0 
5.11537 3.91723 0.0 
4.36483 4.71909 0.0 
4.09728 4.03704 0.0 
6.38052 3.13775 0.0 
5.9291 5.15993 0.0 
4.41876 3.9952 0.0 
4.26036 4.04317 0.0 
9.4176 1.73395 0.0 
4.55263 4.00322 0.0 
5.24537 4.1668 0.0 
9.95529 3.59841 0.0 
4.46368 4.04155 0.0 
4.92704 4.10133 0.0 
4.06062 3.97377 0.0 
8.35832 2.9685 0.0 
13.4699 7.45697 0.0 
3.92997 4.29349 0.0 
4.01229 3.97705 0.0 
4.11287 4.05054 0.0 
13.2903 7.45798 0.0 
4.00267 3.93761 0.0 
4.09808 4.03387 0.0 
7.6398 2.6807 0.0 
4.00577 3.97873 0.0 
1.1914 3.57636 0.0 
7.17725 0.685359 0.0 
12.1537 4.12952 0.0 
7.62224 2.88267 0.0 
1.33311 1.459 0.0 
4.84809 6.69312 0.0 
4.13651 4.04345 0.0 
13.6945 7.80328 0.0 
4.20347 3.98798 0.0 
3.10507 4.62371 0.0 
4.44604 3.99137 0.0 
5.8599 3.0813 0.0 
4.1283 4.05439 0.0 
4.90953 3.97583 0.0 
4.02321 3.97317 0.0 
10.6153 7.62373 0.0 
4.52616 3.99764 0.0 
4.6103 3.91602 0.0 
4.79804 4.50383 0.0 
4.34801 4.03637 0.0 
4.11575 4.03408 0.0 
4.28786 3.9898 0.0 
4.20274 4.07949 0.0 
4.73454 4.01964 0.0 
12.5015 1.14918 0.0 
4.09797 3.95385 0.0 
4.23052 4.09368 0.0 
4.20868 4.08388 0.0 
10.0316 4.5446 0.0 
6.95088 7.06331 0.0 
4.21025 4.03415 0.0 
4.96928 3.97464 0.0 
6.85323 7.27439 0.0 
12.2741 7.78702 0.0 
3.45008 4.08895 0.0 
3.98799 3.95955 0.0 
9.54961 6.99546 0.0 
8.82235 8 0.0 
4.23781 4.09881 0.0 
4.16892 4.04593 0.0 
4.69512 3.9114 0.0 
3.94898 3.70015 0.0 
4.06329 4.04721 0.0 
2.37857 1.61641 0.0 
4.18805 3.96826 0.0 
6.64238 0.26606 0.0 
4.50984 4.40589 0.0 
2.89316 5.49873 0.0 
0.417479 6.31883 0.0 
6.21698 4.34915 0.0 
4.80164 3.97323 0.0 
11.087 3.74774 0.0 
4.30095 6.55575 0.0 
3.98977 4.04663 0.0 
3.99153 4.04254 0.0 
4.57553 4.01147 0.0 
4.04814 4.02824 0.0 
5.16077 4.06746 0.0 
4.0264 4.19188 0.0 
3.97296 4.00674 0.0 
11.3714 7.19716 0.0 
9.192 5.81999 0.0 
4.05641 4.03078 0.0 
3.53429 0 0.0 
4.67134 3.89044 0.0 
4.08953 4.02996 0.0 
4.14091 4.04918 0.0 
2.30378 3.03595 0.0 
3.88652 4.04959 0.0 
4.06165 4.07937 0.0 
7.40997 8 0.0 
3.91384 4.0656 0.0 
2.86414 6.59491 0.0 
4.08297 4.00762 0.0 
9.9204 3.84008 0.0 
4.38694 4.07948 0.0 
4.54157 4.00481 0.0 
4.4793 4.02136 0.0 
6.78993 2.13526 0.0 
4.0108 3.9997 0.0 
0.846754 0.565038 0.0 
6.11894 4.72303 0.0 
4.03784 4.02637 0.0 
0.348252 3.38742 0.0 
4.02904 3.9664 0.0 
7.59973 7.22298 0.0 
12.6277 1.80732 0.0 
3.58128 4.19944 0.0 
5.85073 0.410811 0.0 
13.0902 7.46595 0.0 
4.00487 4.00528 0.0 
4.55143 4.02796 0.0 
5.0604 3.97687 0.0 
5.99012 4.04484 0.0 
7.99609 6.1415 0.0 
4.35175 4.03659 0.0 
4.51225 4.03393 0.0 
3.96066 4.00697 0.0 
4.03797 3.98521 0.0 
4.96395 4.01931 0.0 
13.1661 5.68046 0.0 
13.7895 0 0.0 
4.10795 4.02897 0.0 
11.8107 0.651755 0.0 
11.4357 2.10385 0.0 
0.845864 1.62601 0.0 
2.41657 7.83798 0.0 
4.00791 4.0033 0.0 
4.0088 3.9805 0.0 
9.75515 2.36072 0.0 
4.33917 4.03836 0.0 
4.30141 4.04146 0.0 
4.02947 3.97325 0.0 
13.2514 4.05028 0.0 
4.6454 3.91884 0.0 
4.01129 4.00596 0.0 
4.88498 4.06106 0.0 
4.05815 3.98351 0.0 
2.77497 7.51281 0.0 
5.42745 4.66872 0.0 
4.01755 3.97046 0.0 
4.52386 4.04096 0.0 
0.195775 6.68759 0.0 
5.18268 3.9437 0.0 
6.42419 4.18044 0.0 
6.73412 3.55133 0.0 
4.05373 4.0206 0.0 
4.0593 4.0207 0.0 
8.21186 3.9854 0.0 
4.54092 4.00701 0.0 
4.11868 3.97589 0.0 
4.15516 3.94365 0.0 
4.01695 3.96353 0.0 
4.33187 3.99414 0.0 
8.32777 8 0.0 
3.77161 4.00817 0.0 
3.86569 4.12535 0.0 
4.47959 4.018 0.0 
4.51883 4.01095 0.0 
5.06461 4.08435 0.0 
4.00437 3.9841 0.0 
4.20802 4.04697 0.0 
4.0134 3.97877 0.0 
3.03193 6.72582 0.0 
4.5555 3.99978 0.0 
4.01079 3.9893 0.0 
14 3.84943 0.0 
4.36156 4.08272 0.0 
2.48952 3.59766 0.0 
4.02586 3.98561 0.0 
7.34292 5.19319 0.0 
4.20001 4.03326 0.0 
4.5671 3.97265 0.0 
4.21639 4.03358 0.0 
3.92685 3.99783 0.0 
3.89766 4.03669 0.0 
11.5792 7.84461 0.0 
0.551344 1.2516 0.0 
4.02575 3.96118 0.0 
4.48 3.997 0.0 
6.49849 5.21743 0.0 
4.52089 3.9992 0.0 
4.01845 4.01173 0.0 
4.93652 4.08387 0.0 
4.12141 4.04066 0.0 
3.84356 4.30666 0.0 
7.12026 6.70684 0.0 
11.8351 6.74811 0.0 
9.65721 5.90637 0.0 
4.1127 3.96242 0.0 
4.08463 4.01547 0.0 
4.15116 3.93854 0.0 
4.13176 4.07898 0.0 
10.2186 2.28825 0.0 
9.90278 1.9712 0.0 
4.85957 4.01386 0.0 
3.88393 4.01427 0.0 
4.00279 3.99128 0.0 
4.05385 4.00986 0.0 
10.5319 2.82151 0.0 
0.898692 6.20579 0.0 
6.32476 7.00417 0.0 
12.5996 5.63737 0.0 
4.64409 4.00438 0.0 
12.5002 4.90738 0.0 
4.15737 4.7922 0.0 
0.262648 3.59523 0.0 
13.4657 4.18793 0.0 
4.00353 3.9915 0.0 
11.4878 0.917753 0.0 
3.99816 4.00816 0.0 
11.2705 7.61787 0.0 
4.05653 4.0882 0.0 
7.56457 6.83703 0.0 
3.96806 4.01296 0.0 
11.0968 5.75296 0.0 
4.55406 3.99831 0.0 
7.19396 5.74117 0.0 
4.28774 3.99136 0.0 
4.53312 4.00677 0.0 
4.21367 3.97319 0.0 
4.5467 4.03146 0.0 
4.54396 3.89411 0.0 
4.19408 3.96917 0.0 
4.53595 4.04072 0.0 
7.20657 5.05296 0.0 
3.05391 4.40989 0.0 
2.66772 5.1655 0.0 
13.167 3.69177 0.0 
4.53295 4.01509 0.0 
4.09178 4.02837 0.0 
5.30644 0.173765 0.0 
0.198711 3.79297 0.0 
4.72583 0.194576 0.0 
3.90471 2.31823 0.0 
9.89887 3.9349 0.0 
3.99586 4.00736 0.0 
4.01037 4.03326 0.0 
8.68021 3.80879 0.0 
11.7849 3.47196 0.0 
4.73668 3.89169 0.0 
4.04877 3.98924 0.0 
3.96886 4.00175 0.0 
4.64006 3.99672 0.0 
4.48117 4.01695 0.0 
4.04703 4.09638 0.0 
8.43409 3.16574 0.0 
4.82507 4.1106 0.0 
4.10171 3.98704 0.0 
4.33599 4.03724 0.0 
0.347962 1.57688 0.0 
4.04597 4.02963 0.0 
1.47689 3.96699 0.0 
7.00233 6.47926 0.0 
7.78364 0 0.0 
6.32437 6.34013 0.0 
4.61917 3.98897 0.0 
5.62592 4.80931 0.0 
4.7383 3.87602 0.0 
13.6204 4.53691 0.0 
0.861823 0.804062 0.0 
1.64832 6.43608 0.0 
13.7604 0.5867 0.0 
5.35654 3.74721 0.0 
4.54804 4.00403 0.0 
4.05828 4.04836 0.0 
4.25841 3.96952 0.0 
4.03014 4.02376 0.0 
4.67115 5.32717 0.0 
3.85376 3.84164 0.0 
4.12609 4.06211 0.0 
8.94235 3.15878 0.0 
4.02684 4.06317 0.0 
4.10354 3.98413 0.0 
4.10968 3.93392 0.0 
4.47293 4.03853 0.0 
4.10523 4.03906 0.0 
4.02257 4.01937 0.0 
4.20825 4.10655 0.0 
7.05343 0.323278 0.0 
4.55691 3.99871 0.0 
4.04034 4.13877 0.0 
7.14156 0.150746 0.0 
4.85208 4.04382 0.0 
4.28788 4.04173 0.0 
10.7281 8 0.0 
7.66491 7.40727 0.0 
0.332338 5.15195 0.0 
8.64936 2.61471 0.0 
9.46048 3.26649 0.0 
4.24795 3.92322 0.0 
7.18228 0.487344 0.0 
2.38712 1.20485 0.0 
1.67427 8 0.0 
4.47017 0.936125 0.0 
5.04933 5.17212 0.0 
[...]
<PointData>
  <DataArray type = "Float64" Name="Vitesse" NumberOfComponents="3" format="ascii">
1 0 0.0 
1.00432 0 0.0 
1.00257 0 0.0 
1 0 0.0 
0.999969 -0.000136891 0.0 
1.00748 -0.00496723 0.0 
1.00741 0.000147614 0.0 
0.960079 0.148587 0.0 
1.01343 -0.00627935 0.0 
0.00298671 -0.000611801 0.0 
0.145834 -0.0182098 0.0 
0.874857 -0.094336 0.0 
1.00524 0.000725014 0.0 
0.875466 -0.0772931 0.0 
0.774342 0.197505 0.0 
0.682414 0.189146 0.0 
1.00655 -0.000319966 0.0 
1.00857 -0.00369665 0.0 
0.0169713 -0.000160161 0.0 
0.963796 -0.325238 0.0 
0.808471 -0.0157441 0.0 
0.132806 -0.0159738 0.0 
0.959234 -0.0453422 0.0 
0 0 0.0 
0.37141 -0.0172785 0.0 
0.117769 -0.00176503 0.0 
1.00508 0 0.0 
1.00369 -0.000309165 0.0 
0.120101 -0.0171424 0.0 
0.221717 0.00612404 0.0 
0.0280977 0.000632767 0.0 
0.539046 0.0595139 0.0 
1.00721 -0.00130784 0.0 
0.459949 0.0136749 0.0 
1.00804 0.00084116 0.0 
0.14802 -0.00216604 0.0 
1.00704 -0.00120638 0.0 
1 0 0.0 
0.804041 0.0186855 0.0 
0 0 0.0 
0.98185 -0.0147834 0.0 
1.00818 -0.000903993 0.0 
0 0 0.0 
1.00152 0 0.0 
1.00143 -0.000612103 0.0 
0.132025 -0.00988112 0.0 
0.892271 -0.0518796 0.0 
0.943124 -0.0160678 0.0 
0 0 0.0 
-3.93096e-250 -7.59061e-251 0.0 
1.03172 -0.000754306 0.0 
0.761868 0.104421 0.0 
1.00471 0.0021289 0.0 
0 0 0.0 
1.03218 -0.0967023 0.0 
0.924841 0.316346 0.0 
0.720099 0.309262 0.0 
0 0 0.0 
1.00568 0 0.0 
0.379232 0.00104869 0.0 
0.819554 0.126805 0.0 
1.00125 -0.00404832 0.0 
0.857262 -0.0129023 0.0 
1.00692 -0.00167225 0.0 
1.00228 0.00587222 0.0 
0 0 0.0 
0.360769 -0.149496 0.0 
0.0481302 -0.00497478 0.0 
0.994577 -0.0164333 0.0 
1.00519 7.27719e-05 0.0 
0.821981 0.0170438 0.0 
0 0 0.0 
0 0 0.0 
0.948193 0.0166123 0.0 
0.18483 0.0048158 0.0 
0.347567 0.0150585 0.0 
0.725443 0.0673409 0.0 
0.397448 0.00467352 0.0 
0.891308 0.0094654 0.0 
0.859675 -0.137459 0.0 
0.0810006 0.00314618 0.0 
1.04741 0.208328 0.0 
0.154109 -0.0292407 0.0 
0.980706 -0.0675501 0.0 
1.00244 -0.00157341 0.0 
0.874287 -0.124897 0.0 
1.02737 -0.100605 0.0 
0.912805 0.324002 0.0 
0.191495 0.00612533 0.0 
0.750311 0.107091 0.0 
0.99698 0.023636 0.0 
0.751152 0.131256 0.0 
0.686296 0.104787 0.0 
0.431033 0.133086 0.0 
0.743947 0.0768493 0.0 
0.346112 0.0126164 0.0 
1.00449 -0.000323426 0.0 
0.0137787 0.000240011 0.0 
0.315413 0.0120511 0.0 
0.0400262 0.00195085 0.0 
1.00704 0.000621767 0.0 
0.298934 0.0140291 0.0 
0 0 0.0 
1.0054 0.000526286 0.0 
0.503494 -0.0368119 0.0 
0.283658 0.00819373 0.0 
0 0 0.0 
0.62482 0.00215181 0.0 
1.00788 -0.00099912 0.0 
1.00862 -0.00405792 0.0 
0.0165638 0.000462291 0.0 
1.08054 -0.134732 0.0 
0.69568 -0.012839 0.0 
1.00507 0.00169954 0.0 
0.182378 -0.0235943 0.0 
1.00509 -0.000283269 0.0 
0 0 0.0 
0.0216578 0.00349789 0.0 
1.00692 0.000240469 0.0 
1.00782 0.000138062 0.0 
1.00677 -0.000320903 0.0 
0.823333 -0.0622867 0.0 
0.299368 0.0273462 0.0 
0.637402 0.00936092 0.0 
0.0681398 0.00594705 0.0 
0.222186 0.00571358 0.0 
0.396033 -0.035826 0.0 
0.245997 -0.0108103 0.0 
0 0 0.0 
1.0028 0 0.0 
0.0550598 -0.00477549 0.0 
1.0058 0 0.0 
0.528965 0.307659 0.0 
1.0059 -0.00237216 0.0 
0 0 0.0 
0.94239 -0.0379821 0.0 
0 0 0.0 
0.31564 0.0440751 0.0 
1.0076 0.00880352 0.0 
0 0 0.0 
0.995233 -0.00722059 0.0 
1.00862 0.00107047 0.0 
1.00614 -6.55607e-06 0.0 
1.00078 0.00125613 0.0 
-9.75044e-206 6.20653e-207 0.0 
0.0101929 -0.000883713 0.0 
-1.94928e-44 -9.08554e-46 0.0 
1.00527 -0.0001586 0.0 
1.08813 0.0642432 0.0 
0.604848 0.0330398 0.0 
1.00609 0.000107505 0.0 
0.997206 -0.000666571 0.0 
0.000876 7.95398e-05 0.0 
1.00343 -0.00143753 0.0 
0.381596 0.0176207 0.0 
1.00491 -0.00236852 0.0 
0.978636 -0.091617 0.0 
0.0602003 -0.0120468 0.0 
1.00059 0.000419047 0.0 
0.00591294 0.000194947 0.0 
1.07289 0.0739086 0.0 
1.00866 -0.00142578 0.0 
1.00491 -0.00207042 0.0 
0.782364 -0.0535181 0.0 
1.00922 -0.00157896 0.0 
0.999193 -0.0272748 0.0 
0.422485 0.00209249 0.0 
0.253352 -0.17551 0.0 
1.00751 -0.00121145 0.0 
0.41251 -0.0165854 0.0 
1.0055 0.000561816 0.0 
1.00609 0.000223039 0.0 
0.398067 0.0198382 0.0 
1.00042 0 0.0 
0.962028 0.273803 0.0 
0.886551 0.0119998 0.0 
1.02493 0.0126523 0.0 
0 0 0.0 
1.00832 0.000255457 0.0 
1.00938 -0.00219791 0.0 
0.020719 3.69928e-05 0.0 
0.0186089 0.000374319 0.0 
1.00643 0.000265297 0.0 
0.002565 -0.00049124 0.0 
1.0034 -0.0128369 0.0 
1.00817 0.000867682 0.0 
0.21255 -0.0219168 0.0 
0.905995 -0.0266751 0.0 
0.586604 -0.0572756 0.0 
1.00722 0.000275466 0.0 
1.00311 -0.000435965 0.0 
0.992888 0.0588977 0.0 
0.930595 -0.339097 0.0 
0.525177 0.0768759 0.0 
1.00325 -0.000409097 0.0 
0.966625 -0.188961 0.0 
0 0 0.0 
1.0072 0.000183159 0.0 
0.895748 -0.385312 0.0 
0.999497 -5.86308e-05 0.0 
1.00605 -7.64306e-05 0.0 
0.922125 -0.00208519 0.0 
1.00722 0.00021599 0.0 
1.00021 -0.000714507 0.0 
1.00666 0.00134199 0.0 
0.0802744 0.00125226 0.0 
1.00287 -0.000170392 0.0 
0.0243855 0.00217902 0.0 
0.996207 0.00865896 0.0 
0.0877599 0.00230177 0.0 
1.00883 0.000464006 0.0 
0.578093 0.071317 0.0 
0.503453 0.0139824 0.0 
0.950184 -0.259081 0.0 
1.00463 -0.000151895 0.0 
0.0214406 -0.000118642 0.0 
0.950305 0.0267785 0.0 
1.02448 -0.00753243 0.0 
0.018275 -0.00144619 0.0 
0 0 0.0 
0.0389448 0.00181916 0.0 
0.951303 0.0615246 0.0 
0.266124 -0.0109307 0.0 
1.00516 0.000431653 0.0 
0.969427 -0.0812207 0.0 
1.06465 0.0552736 0.0 
1.00085 0.0627283 0.0 
1.00811 -0.00119337 0.0 
1.00622 -0.000277152 0.0 
0 0 0.0 
0.530594 0.0130045 0.0 
1.00613 -0.000183907 0.0 
1.00384 -0.00011497 0.0 
0.980916 0.00548501 0.0 
0.8871 -0.218392 0.0 
1.00525 -0.000372258 0.0 
1.00525 0 0.0 
1.08759 0.0541103 0.0 
0.0893735 0.00163698 0.0 
0.950037 0.0281409 0.0 
0.996133 -0.0454624 0.0 
0.816562 0.211789 0.0 
1.00082 -0.00177726 0.0 
0.460236 0.00137931 0.0 
1.00584 -7.15836e-05 0.0 
1.04345 0.00070071 0.0 
1.00129 0.00540428 0.0 
1.00003 0.000335042 0.0 
1.00782 -0.00364975 0.0 
0.484171 0.0200798 0.0 
0.986219 0.00148582 0.0 
1.00608 0.00237849 0.0 
0.804581 0.205433 0.0 
0.787155 0.217378 0.0 
0.057613 -0.0181814 0.0 
0.0698322 0.0211538 0.0 
0.730412 -0.0166869 0.0 
1.00498 0.106959 0.0 
0.675159 -0.0143324 0.0 
1.00444 -0.000356144 0.0 
1.00629 -0.000758748 0.0 
0.0892739 0.0182014 0.0 
1.00273 0 0.0 
1.00998 0.0239072 0.0 
0 0 0.0 
0.305578 0.0276389 0.0 
0.998497 -0.00208859 0.0 
0.897507 0.0308035 0.0 
1.03382 0.233368 0.0 
1.00575 0 0.0 
0.888182 0.0579165 0.0 
1.00239 0.00250617 0.0 
0 0 0.0 
0.942002 0.000910816 0.0 
0.765526 -0.0283235 0.0 
0.000320081 -3.52025e-05 0.0 
0.0288441 -0.00444006 0.0 
1.0071 -9.87635e-05 0.0 
0 0 0.0 
1.00013 -0.000182032 0.0 
1.00922 -0.0033116 0.0 
0.16954 0.0584424 0.0 
0.999969 -3.97599e-05 0.0 
1.02126 -0.245404 0.0 
1.00589 -0.000277481 0.0 
1.0054 0.000737704 0.0 
0.977611 0.0158142 0.0 
1.00553 -0.000248408 0.0 
1.0034 -0.00037627 0.0 
0 0 0.0 
0.147123 -0.0236636 0.0 
0.543683 0.0100144 0.0 
0.709522 -0.00573975 0.0 
1.0064 -0.00074649 0.0 
0.0266702 -0.00197249 0.0 
0.169342 -0.0201011 0.0 
0.747263 -0.0128647 0.0 
0.130041 -0.0174398 0.0 
0.420525 -0.00717519 0.0 
1.00435 -0.00194783 0.0 
1.00442 0 0.0 
0 0 0.0 
1.00528 0.000225056 0.0 
1.00614 0.000762832 0.0 
1.00006 -0.00044465 0.0 
1.00166 0.00022894 0.0 
0 0 0.0 
0.878257 -0.367571 0.0 
1.00678 0.000431951 0.0 
0.0340237 -0.00341495 0.0 
0.0370824 -0.00395361 0.0 
0.898949 -0.20839 0.0 
0.925296 -0.00200324 0.0 
0.92747 0.0290741 0.0 
0 0 0.0 
0.644381 -0.0271424 0.0 
0.126992 -0.0114873 0.0 
1.00221 0.000778724 0.0 
1.01305 -0.00551168 0.0 
0.994822 -0.302462 0.0 
0.258652 -0.0279865 0.0 
1 0.000129164 0.0 
0.754688 0.0115741 0.0 
0.993681 -0.0039365 0.0 
1.00817 0.000668578 0.0 
0 0 0.0 
0 0 0.0 
0.787364 -7.51526e-05 0.0 
0.00662452 -0.00128341 0.0 
0.313168 -0.00199163 0.0 
0.979073 -0.0465537 0.0 
1.00661 -0.280644 0.0 
-8.75123e-44 -1.74444e-45 0.0 
1.00543 0 0.0 
0.944502 0.00100113 0.0 
0.938123 0.0510636 0.0 
0.00778545 -0.00123004 0.0 
0.00606869 -0.00116693 0.0 
0.820221 -0.0214449 0.0 
0.804997 -0.413632 0.0 
0.0888583 0.00147563 0.0 
0.892358 -0.319086 0.0 
1.00275 0.002338 0.0 
-4.56124e-239 -1.4723e-241 0.0 
0.312447 -0.112644 0.0 
0.949317 0.00240101 0.0 
0.821729 -0.0216651 0.0 
0.996495 -0.00110392 0.0 
0.251467 -0.0480241 0.0 
1.00732 -0.00138192 0.0 
0 0 0.0 
0.407801 0.0266959 0.0 
0 0 0.0 
0.84483 -0.0236272 0.0 
0.884623 0.0251237 0.0 
1.00417 -7.06624e-05 0.0 
1.00004 -0.000234816 0.0 
1.0364 -0.253172 0.0 
0.0164071 0.00123114 0.0 
1.00809 -0.00183525 0.0 
5.27127e-05 3.76415e-06 0.0 
0 0 0.0 
0.815334 -0.0266092 0.0 
0 0 0.0 
0.985028 0.0443733 0.0 
1.00641 -0.000456625 0.0 
1.00447 -0.000614813 0.0 
1.00604 -0.000732902 0.0 
0.739277 -0.0362276 0.0 
0 0 0.0 
1.02888 -0.0559242 0.0 
1.071 0.153642 0.0 
1.00665 0.000522634 0.0 
1.0065 0.00038832 0.0 
0.348009 -0.00498344 0.0 
0.893604 0.00300505 0.0 
0.499844 -0.352561 0.0 
0 0 0.0 
1.00689 0.000756551 0.0 
1.00012 0.000785644 0.0 
1.00649 -0.000113254 0.0 
1.00494 -0.0016158 0.0 
0.16219 0.0041528 0.0 
1.00554 -0.00210024 0.0 
1.01728 0.0172834 0.0 
0.999977 6.63947e-06 0.0 
0.955617 -0.00516563 0.0 
0.45288 -0.307338 0.0 
1.00548 0.000309909 0.0 
0.262999 0.187631 0.0 
1.00435 -0.000166592 0.0 
1.02205 0.21807 0.0 
1.00612 -0.000434644 0.0 
0.713398 0.0218008 0.0 
1.00574 -0.00095901 0.0 
0.0194177 -0.000337538 0.0 
1.00723 -0.00106775 0.0 
0.0111672 0.000968479 0.0 
0.000153949 -3.08064e-05 0.0 
0.336943 0.0053057 0.0 
0.175581 -0.0248248 0.0 
1.03026 0.0128097 0.0 
0.43501 0.00253801 0.0 
0.265772 -0.0297516 0.0 
1.00743 -0.00160576 0.0 
0.993596 0.00667889 0.0 
0.999699 0.00505164 0.0 
0.98381 0.00361499 0.0 
0.037164 -0.00629297 0.0 
0 0 0.0 
1.00507 -0.000159632 0.0 
0.999992 2.87498e-05 0.0 
1.00445 -0.000240528 0.0 
1.00447 -0.00549674 0.0 
0.85999 0.00181959 0.0 
0.30041 0.126287 0.0 
0.784064 0.34279 0.0 
0.976586 0.00112397 0.0 
1.00814 0.00168325 0.0 
0.996031 0.0233134 0.0 
0 0 0.0 
0.706633 -0.0460263 0.0 
0.19046 0.0130136 0.0 
0.00345018 -0.00068082 0.0 
1.00502 0.203745 0.0 
1.00722 0.000288352 0.0 
0.944848 -0.0336083 0.0 
-1.04908e-272 -3.16178e-274 0.0 
0.0127186 -0.00108053 0.0 
1.00001 -0.000169726 0.0 
0.218092 0.068528 0.0 
0.999119 0.000422641 0.0 
1.00667 -0.00056012 0.0 
1.00594 0 0.0 
1.00726 -0.000425066 0.0 
0.228874 0.0229183 0.0 
1.01112 -0.00389897 0.0 
1.01516 0.0207871 0.0 
1.00793 -0.00448308 0.0 
1.00013 -0.00025929 0.0 
1.00057 0.00144179 0.0 
1.0045 0.000281427 0.0 
1.00821 0.00485369 0.0 
0.00160872 -0.000451758 0.0 
0.881615 0.242295 0.0 
0.407073 0.00581662 0.0 
0.181807 0.0616898 0.0 
1.01329 0.00362654 0.0 
0.961759 -0.0447015 0.0 
0.833971 0.117412 0.0 
1.00722 0.000306984 0.0 
0.942762 0.267731 0.0 
0.0579348 -0.000957891 0.0 
1.07974 -0.0939888 0.0 
0.184041 -0.020191 0.0 
0.0380983 0.0025166 0.0 
0.0781614 0.0278666 0.0 
1.12221 0.081443 0.0 
1.00593 -4.89585e-05 0.0 
0.0142969 0.000964566 0.0 
1.0042 0.147918 0.0 
1.00592 -2.04141e-05 0.0 
0.493403 -0.0224569 0.0 
0.0263957 -0.00178609 0.0 
1.00451 0 0.0 
1.00579 -0.000210587 0.0 
0.999989 0.00029423 0.0 
1.00706 0.000257976 0.0 
1.00768 0.000304904 0.0 
1.03062 -0.0259644 0.0 
1.00598 -5.66141e-05 0.0 
1.00104 -0.00133027 0.0 
1.00079 0 0.0 
1.00445 -0.00132989 0.0 
1.01329 -0.0001703 0.0 
0.300753 0.00832967 0.0 
0.0646001 -0.00212751 0.0 
1.00705 0.000471373 0.0 
0.0257959 0.00172341 0.0 
0.000274543 8.868e-06 0.0 
1.00597 -0.000986913 0.0 
0.802734 0.319081 0.0 
1.00749 0.000418709 0.0 
-4.12229e-135 -7.18354e-136 0.0 
0.00231273 0.000111773 0.0 
0.0469546 -0.0025959 0.0 
1.00609 0.000326417 0.0 
0.915798 0.131045 0.0 
1.00583 -0.00076203 0.0 
1.00659 0.000919147 0.0 
0.902519 -0.00392231 0.0 
0.0199447 -0.00246168 0.0 
0.962326 -0.0565717 0.0 
1.0054 -0.00240321 0.0 
0.692473 0.000956402 0.0 
1.00662 -0.000705512 0.0 
1.02707 0.0203872 0.0 
1.00565 -0.00165914 0.0 
0.963639 -0.283016 0.0 
0 0 0.0 
0.0121637 -0.00212848 0.0 
1.00572 -0.000424455 0.0 
0.0877609 0.00129177 0.0 
1.006 0.000173811 0.0 
0.924746 -0.305849 0.0 
0.997326 -0.000784445 0.0 
0.999357 0.00071686 0.0 
1.00663 0.000646211 0.0 
0 0 0.0 
1.00002 -0.000183949 0.0 
0.406124 -0.0978657 0.0 
0.987617 0.00121295 0.0 
1.00724 0.000810672 0.0 
1.00665 0.000601069 0.0 
0.997598 0.00165372 0.0 
0.283873 -0.0409327 0.0 
0.999796 -0.000813044 0.0 
1.00024 0.000356376 0.0 
0.107995 -0.0152905 0.0 
1.00339 -0.00277404 0.0 
1.00508 -0.000199825 0.0 
1.01011 0.00418982 0.0 
0.999999 0.000126592 0.0 
1.01817 0.010025 0.0 
1.0046 0.00162135 0.0 
0.635884 0.0146216 0.0 
1.00997 -0.00181939 0.0 
0.704904 0.0906076 0.0 
0.00726563 -0.00115382 0.0 
1.00137 0.00283983 0.0 
0 0 0.0 
0.0230369 -0.00236266 0.0 
1 0.000232059 0.0 
1.0079 -0.00144891 0.0 
0.00315591 -0.000608145 0.0 
1.00633 0.000276126 0.0 
1.00889 0.00192853 0.0 
1.00003 0.000300509 0.0 
8.4094e-86 1.61974e-86 0.0 
1.0068 0.000599699 0.0 
1.00702 -0.000682791 0.0 
1.00626 -0.000353296 0.0 
1.0056 -8.17743e-05 0.0 
1.00809 -0.00707797 0.0 
1.0054 -0.000170696 0.0 
1.00464 0.000771247 0.0 
-8.40422e-60 2.19485e-60 0.0 
0.0290713 0.00146981 0.0 
0.0146568 0.00141246 0.0 
0.031187 0.000953935 0.0 
0.384133 -0.0108673 0.0 
0.705643 0.0132411 0.0 
0.812622 0.0140858 0.0 
1 0 0.0 
1.0062 -0.000391987 0.0 
0.0197285 0.000597163 0.0 
0.941794 0.00315633 0.0 
0 0 0.0 
0 0 0.0 
0.260703 0.0229153 0.0 
1.00837 0.00129925 0.0 
0.00332997 -0.000775519 0.0 
0.331881 -0.00588242 0.0 
1.00532 0.000129627 0.0 
1.0042 -0.000255424 0.0 
0.72302 -0.0308873 0.0 
0.99988 0.00097566 0.0 
0.203573 0.017385 0.0 
1.00772 8.42132e-05 0.0 
1.00625 -0.00365959 0.0 
0.983806 0.139609 0.0 
1.00394 0.000252626 0.0 
0.000477573 1.62719e-05 0.0 
1.00385 -0.000340744 0.0 
0.501624 -0.0128491 0.0 
1.0055 -0.00185016 0.0 
1.00519 0.00145395 0.0 
0.92681 -0.00380132 0.0 
1.96466e-06 -1.0966e-07 0.0 
0.868704 -0.0163832 0.0 
0.862217 0.0304449 0.0 
1.00571 7.30239e-05 0.0 
1.12511 0.0829546 0.0 
0.0306225 -0.0167976 0.0 
0.338155 0.0547245 0.0 
0.00642193 -0.00131117 0.0 
1.0103 -0.104734 0.0 
1.00338 -0.000534301 0.0 
1.00602 -1.54007e-05 0.0 
1.03995 -0.00267087 0.0 
1.00611 0.000389344 0.0 
1.0074 0.000266932 0.0 
1.00571 -0.0449771 0.0 
1.00719 0.000221945 0.0 
1.00814 0.00202557 0.0 
0.561067 -0.0356841 0.0 
1.00505 -0.0024848 0.0 
1.00495 -0.0011517 0.0 
0.998893 0.00447385 0.0 
1.00504 0.00104327 0.0 
0.935509 -0.00378367 0.0 
1.00173 -0.000506052 0.0 
0.00751633 -9.70768e-05 0.0 
1.01262 0.0261979 0.0 
1.00517 0.001224 0.0 
1.00598 -5.92074e-05 0.0 
1.00469 -0.00284222 0.0 
0.0137639 -0.00237315 0.0 
1.03859 0.0237601 0.0 
1.00377 -0.00181995 0.0 
0.137495 0.0374615 0.0 
1.0047 -0.00025351 0.0 
1.00847 0.00131596 0.0 
0.88673 -0.0210716 0.0 
-4.70931e-46 -7.31243e-48 0.0 
0.0607035 -0.0131859 0.0 
0.950639 0.0324316 0.0 
1.02123 0.0973375 0.0 
1 -0.000953442 0.0 
0.0369722 0.00117738 0.0 
0.00261124 -9.02516e-05 0.0 
1.00676 0.000951948 0.0 
1.00679 -0.00155289 0.0 
0.315657 0.0449578 0.0 
1.00612 -0.000732557 0.0 
0.955411 0.028139 0.0 
0.999997 -0.000439434 0.0 
1.00739 -0.000750451 0.0 
1.00622 0.0011155 0.0 
1.0051 -0.000573003 0.0 
1.00424 -0.00296491 0.0 
1.00624 -0.000765172 0.0 
0.0254388 0.000531116 0.0 
1.00692 0.000117589 0.0 
1.00034 -0.000232415 0.0 
1.00528 7.02216e-05 0.0 
1.00583 0 0.0 
0.890185 -0.000295028 0.0 
1.00001 -0.000260511 0.0 
1.00007 -0.000219841 0.0 
0.861357 0.031324 0.0 
0.274113 0.00418778 0.0 
1.00755 0.000288258 0.0 
1.00875 0.000181235 0.0 
0.620605 0.0268853 0.0 
1.00633 -0.00083745 0.0 
1.00565 -0.000296768 0.0 
1.05954 0.094422 0.0 
0.912927 -0.0161527 0.0 
1.0071 0.000283425 0.0 
0.401873 0.00497615 0.0 
0.995412 -0.00512067 0.0 
0.431736 0.00787397 0.0 
0 0 0.0 
0.440912 -0.0162337 0.0 
1.00693 -0.00101509 0.0 
0.790653 0.00186426 0.0 
1.00528 -0.0011042 0.0 
1.00591 -0.000117625 0.0 
1.00413 -0.00202449 0.0 
1.00499 -0.000878555 0.0 
0.181551 0.000405791 0.0 
0 0 0.0 
0 0 0.0 
1.00495 0.000900968 0.0 
1.00516 -0.00087018 0.0 
0.388473 0.0054315 0.0 
1.00474 -0.00016513 0.0 
0.997482 0.0123339 0.0 
1.00569 -0.00072337 0.0 
0.970947 -0.0376404 0.0 
1.00412 -0.000700553 0.0 
0.600043 0.0141475 0.0 
0.893202 0.0140202 0.0 
0.00289576 -6.71649e-05 0.0 
1.00008 -0.000692742 0.0 
1.00646 -0.000789355 0.0 
1.0046 -0.000224037 0.0 
0.927518 -0.164241 0.0 
1.00128 -0.00669468 0.0 
1.0041 -0.000248577 0.0 
0 0 0.0 
0.00835569 0.000380388 0.0 
-6.86976e-251 3.02031e-252 0.0 
0.417267 0.00192727 0.0 
1.0035 -0.000274257 0.0 
0.0362529 -0.00715256 0.0 
0.434118 -0.00117662 0.0 
1.00797 -0.000150812 0.0 
1.00686 0.000914044 0.0 
0.99457 -0.00141347 0.0 
1.00602 -0.000324112 0.0 
1.00464 0.00160769 0.0 
1.00414 -0.00252902 0.0 
0.402963 0.0315091 0.0 
1.00085 0.016866 0.0 
6.96329e-05 -1.03771e-05 0.0 
0.390439 0.138558 0.0 
1.00402 -0.00112806 0.0 
1.00674 -0.000666149 0.0 
1.00652 0.00100999 0.0 
1.01065 -0.000458196 0.0 
0.514283 0.264087 0.0 
0.333695 -0.00160125 0.0 
0.353762 -0.00179299 0.0 
1.00583 0.000190597 0.0 
0.8862 0.0154832 0.0 
1.00688 2.15475e-05 0.0 
0.788048 0.141139 0.0 
1.00725 0.000157933 0.0 
1.00591 -0.000639436 0.0 
1.0063 0.000153508 0.0 
1.00435 0.00131633 0.0 
1.00729 0.000119186 0.0 
1.00656 -0.000239971 0.0 
0.346404 0.000979757 0.0 
0.0456017 -0.000183446 0.0 
1.00567 0.000156559 0.0 
0.794278 -0.00123265 0.0 
0.999832 -0.000286412 0.0 
0.997671 0.00434199 0.0 
0.911045 -0.0563244 0.0 
1.00001 -0.000133666 0.0 
0.0319331 -0.00230452 0.0 
0.0962503 0.0212754 0.0 
0.395663 -0.00964953 0.0 
0.0414367 0.000113692 0.0 
1.00322 0.00220577 0.0 
0.904563 -0.0944595 0.0 
0.999937 -0.00133831 0.0 
0.0295978 0.000201516 0.0 
0.834742 0.29175 0.0 
0.835448 -0.0515192 0.0 
1 -0.000254899 0.0 
0.322932 -0.234634 0.0 
0.389884 0.0863306 0.0 
0.056088 0.000157421 0.0 
0.302947 0.0668576 0.0 
1.00238 0.00977981 0.0 
1.00659 -0.000121721 0.0 
-6.3239e-46 9.19841e-47 0.0 
0.0147457 -0.00223364 0.0 
0.0468565 0.00192318 0.0 
0.599425 -0.000153328 0.0 
0.0359531 0.00364045 0.0 
0 0 0.0 
0.822267 0.167831 0.0 
1.00453 -0.000536672 0.0 
0.235925 0.00421092 0.0 
1.00592 -3.54715e-05 0.0 
0.482945 0.0678508 0.0 
0.698265 0.00431649 0.0 
0 0 0.0 
0.885454 -0.0548237 0.0 
0.0151726 -0.0280687 0.0 
1.00544 0.000238606 0.0 
0.0706492 0.0099236 0.0 
6.57187e-90 4.20875e-91 0.0 
1.00479 0.000350319 0.0 
1.00763 -0.00193394 0.0 
0.914783 -0.373154 0.0 
0.0312514 -0.0163287 0.0 
1.00514 -0.00163755 0.0 
1.00549 7.92362e-05 0.0 
1.11687 0.0424766 0.0 
0.0768759 0.00307477 0.0 
1.00606 0.00128847 0.0 
0.994542 0.00238591 0.0 
1.00501 -0.000737087 0.0 
0.447598 -0.0176215 0.0 
0.999855 0.000379678 0.0 
1.00455 -0.000269212 0.0 
0.999761 0.00185047 0.0 
0.948643 -0.0516285 0.0 
1.00504 5.54634e-05 0.0 
0.518776 -0.0464233 0.0 
1.00557 0 0.0 
0.883682 -0.0205597 0.0 
0.999849 0.00317431 0.0 
0.0809287 0.05497 0.0 
1.00531 0.0010622 0.0 
1.00551 0.000499563 0.0 
0.970257 -0.0668122 0.0 
0.444048 0.174235 0.0 
0.453493 0.207078 0.0 
1.43454e-07 -8.92596e-09 0.0 
1.00579 0.000395094 0.0 
1.00699 -0.000330261 0.0 
1.00683 -0.000864491 0.0 
1.00832 0.000587331 0.0 
1.00643 -0.000650111 0.0 
0.0459096 -0.0049508 0.0 
0.566414 -0.0174713 0.0 
1.01156 -0.0134354 0.0 
1.00506 -0.000614889 0.0 
1.00638 -6.37365e-05 0.0 
0 0 0.0 
1.00332 0 0.0 
1.00591 0.00015714 0.0 
0.914622 0.0302391 0.0 
1.00599 2.42679e-06 0.0 
0.656544 0.0110154 0.0 
0.612332 -0.431414 0.0 
1.006 -0.000429113 0.0 
0.471064 -0.0223574 0.0 
1.00615 0.00131011 0.0 
1.00124 -0.0022646 0.0 
5.59535e-06 -3.11861e-07 0.0 
0.0469071 -0.00802939 0.0 
0.217957 -0.0303885 0.0 
1.00482 -0.00153896 0.0 
1.00714 -0.000521748 0.0 
1.0038 -0.00173504 0.0 
0.974269 -0.0229688 0.0 
0.996874 0.00169084 0.0 
1.01956 -0.0937741 0.0 
1.00104 0.00239046 0.0 
0 0 0.0 
1.00097 -0.000852903 0.0 
1.00012 -0.000686871 0.0 
0.939919 -0.283561 0.0 
0.999478 0.000171841 0.0 
0.607857 0.0304231 0.0 
0.157174 0.00868101 0.0 
1.00637 -0.00148254 0.0 
1.00464 -0.00348159 0.0 
1.00358 0.00444018 0.0 
0.999923 9.56444e-06 0.0 
1.00713 0.00119368 0.0 
1.00029 0.000672941 0.0 
1.00348 -0.0017622 0.0 
0.192191 0.0666301 0.0 
0.572453 0.00192799 0.0 
1.00992 -0.00357225 0.0 
1.00058 -0.000419278 0.0 
1.11425 0.090026 0.0 
0.831108 0.333716 0.0 
1.00557 -0.000209587 0.0 