<VTKFile type="UnstructuredGrid" version="0.1" byte_order="LittleEndian">
  <UnstructuredGrid>
    <Piece NumberOfPoints="14068" NumberOfCells="27947">
      <Points>
        <DataArray type = "Float64" NumberOfComponents="3" format="ascii">
0 0 0.0 
14 0 0.0 
14 8 0.0 
0 8 0.0 
5.75759 4.59116 0.0 
4.00476 3.98223 0.0 
3.98249 4.03781 0.0 
4.23766 4.08994 0.0 
4.24204 3.97172 0.0 
4.69846 3.99389 0.0 
5.2526 3.96232 0.0 
5.04057 4.11703 0.0 
6.72693 4.89531 0.0 
4.09474 4.02489 0.0 
4.07057 3.9639 0.0 
4.53824 7.43039 0.0 
4.47478 3.98252 0.0 
3.98741 4.04054 0.0 
3.98768 4.02653 0.0 
4.2182 4.02506 0.0 
4.42507 3.99629 0.0 
4.29253 3.98916 0.0 
0.151059 5.05835 0.0 
4.28913 4.04247 0.0 
4.14436 4.02484 0.0 
4.67405 4.10923 0.0 
4.41541 4.03412 0.0 
4.80484 4.03022 0.0 
4.61584 4.00791 0.0 
0.373721 2.90814 0.0 
12.1265 0 0.0 
0.443017 2.69308 0.0 
13.5625 6.7409 0.0 
3.98227 4.03242 0.0 
8.0983 8 0.0 
4.13177 4.05943 0.0 
4.13489 4.05432 0.0 
4.33817 3.99497 0.0 
1.87391 0 0.0 
4.37386 3.99498 0.0 
4.4121 4.03578 0.0 
4.31808 3.99323 0.0 
4.48435 4.03561 0.0 
0 3.36284 0.0 
4.4635 3.99907 0.0 
4.46674 4.02142 0.0 
4.72718 4.00101 0.0 
4.0462 3.99513 0.0 
4.49101 3.99762 0.0 
4.0273 4.01367 0.0 
4.24164 3.97657 0.0 
4.17612 4.02273 0.0 
4.34158 3.99113 0.0 
4.70577 4.06808 0.0 
4.11863 4.04045 0.0 
4.74743 4.02616 0.0 
4.20647 3.96221 0.0 
4.62327 4.01423 0.0 
4.12607 4.05951 0.0 
4.43594 4.0459 0.0 
4.15168 4.02438 0.0 
4.24778 4.03651 0.0 
4.0955 3.94899 0.0 
4.03444 4.04627 0.0 
4.33214 4.03887 0.0 
4.00163 4.02959 0.0 
4.02005 3.99731 0.0 
5.23503 8 0.0 
1.05651 0.443738 0.0 
4.22357 4.04444 0.0 
4.16065 3.98547 0.0 
4.3638 3.97039 0.0 
4.55021 4.02288 0.0 
8.94307 3.82141 0.0 
4.22535 4.08603 0.0 
4.8066 4.07823 0.0 
4.31154 4.03035 0.0 
4.52413 3.99699 0.0 
4.04652 3.98021 0.0 
3.99603 4.04719 0.0 
5.1201 4.07987 0.0 
4.43194 4.05075 0.0 
4.50261 3.99491 0.0 
4.02264 4.02092 0.0 
4.11191 4.00352 0.0 
4.04672 4.0202 0.0 
4.90719 4.07286 0.0 
4.54602 4.02367 0.0 
4.54772 3.97659 0.0 
3.96947 4.02134 0.0 
4.252 3.97304 0.0 
12.1753 3.5088 0.0 
4.27183 4.05112 0.0 
4.42833 4.00987 0.0 
3.96297 3.96024 0.0 
4.18626 3.98086 0.0 
4.15932 4.03394 0.0 
4.94279 3.90004 0.0 
4.11692 3.94964 0.0 
4.56206 1.73437 0.0 
3.99575 4.05299 0.0 
3.95785 3.95439 0.0 
4.18435 4.00902 0.0 
4.02972 4.04518 0.0 
6.76499 0.609473 0.0 
4.21131 3.97058 0.0 
4.16517 3.98673 0.0 
3.97141 4.03046 0.0 
4.51197 3.99956 0.0 
3.97561 4.03322 0.0 
4.15949 3.98087 0.0 
3.97816 4.02179 0.0 
4.04633 4.03304 0.0 
3.96767 4.02507 0.0 
4.53971 3.97638 0.0 
4.31627 3.99011 0.0 
4.54573 3.99839 0.0 
4.54225 3.97864 0.0 
4.50167 4.01331 0.0 
0.420709 7.8096 0.0 
1.8052 6.26991 0.0 
4.54991 3.98013 0.0 
4.09731 3.96436 0.0 
9.16151 6.19849 0.0 
4.22745 3.98835 0.0 
4.23468 3.97496 0.0 
4.73521 7.52615 0.0 
4.57272 3.95323 0.0 
4.30381 3.98177 0.0 
4.95317 3.93216 0.0 
3.92219 3.9374 0.0 
4.21259 3.97823 0.0 
4.50624 4.01093 0.0 
4.06171 3.97809 0.0 
4.60009 3.94467 0.0 
4.11581 4.05249 0.0 
4.2186 3.97498 0.0 
4.01935 4.01947 0.0 
4.50424 4.01039 0.0 
4.20485 3.96887 0.0 
4.81648 4.13568 0.0 
4.23843 3.97477 0.0 
13.2285 8 0.0 
4.10085 3.96045 0.0 
4.83278 4.09824 0.0 
6.74704 7.50701 0.0 
4.0141 4.01146 0.0 
6.37297 2.73989 0.0 
6.50541 6.65271 0.0 
4.07784 4.01355 0.0 
4.09139 3.96215 0.0 
7.39132 0.561385 0.0 
8.79182 7.69133 0.0 
4.80315 3.99771 0.0 
4.3034 3.97966 0.0 
12.6474 3.41509 0.0 
4.05312 3.99197 0.0 
5.24779 4.02782 0.0 
4.42069 4.0138 0.0 
4.11702 4.02719 0.0 
4.01031 3.94339 0.0 
6.67367 0 0.0 
4.46834 4.03718 0.0 
4.16865 4.01577 0.0 
4.16423 4.04692 0.0 
4.36835 4.03318 0.0 
3.97586 4.01385 0.0 
4.95562 3.99927 0.0 
4.46833 4.03306 0.0 
4.03874 3.11132 0.0 
4.55172 4.02496 0.0 
3.95176 3.9562 0.0 
4.14275 4.01366 0.0 
4.51637 4.00924 0.0 
4.53964 3.99996 0.0 
4.31303 4.02575 0.0 
6.22735 7.50315 0.0 
4.21777 4.01721 0.0 
4.42841 4.03698 0.0 
4.17054 4.01078 0.0 
4.00932 4.01975 0.0 
4.47143 4.0346 0.0 
8.95603 7.57132 0.0 
4.07768 3.99221 0.0 
5.43522 4.03987 0.0 
3.98122 4.01031 0.0 
11.5703 4.18823 0.0 
0 5.2983 0.0 
13.4653 0.705635 0.0 
4.178 4.03035 0.0 
4.07756 3.98679 0.0 
4.47259 4.03711 0.0 
11.3934 4.07618 0.0 
4.38009 3.98809 0.0 
10.4118 5.08662 0.0 
4.54778 4.01674 0.0 
4.27239 3.99065 0.0 
4.08906 3.95484 0.0 
4.01084 3.97813 0.0 
4.25023 4.04353 0.0 
1.36116 1.78512 0.0 
3.95904 4.14137 0.0 
4.09428 3.96323 0.0 
5.19712 3.79885 0.0 
3.04298 2.00142 0.0 
4.26777 4.04342 0.0 
5.97632 3.81791 0.0 
4.06763 3.97375 0.0 
4.17085 4.04914 0.0 
4.29992 3.97509 0.0 
3.63072 3.86803 0.0 
12.0372 1.49526 0.0 
4.52685 3.98204 0.0 
4.2213 4.09576 0.0 
10.4619 3.53679 0.0 
0.899873 3.25579 0.0 
4.39789 4.02787 0.0 
4.5129 3.98094 0.0 
4.0396 3.98681 0.0 
5.1143 3.91388 0.0 
4.01787 3.95968 0.0 
6.38052 3.13775 0.0 
5.9291 5.15993 0.0 
4.02874 4.02049 0.0 
4.0697 3.97574 0.0 
9.4176 1.73395 0.0 
4.53149 4.01086 0.0 
6.0432 7.63644 0.0 
0.382884 7.40907 0.0 
4.47533 4.04508 0.0 
4.20552 3.97966 0.0 
13.8358 7.07207 0.0 
8.35832 2.9685 0.0 
13.4699 7.45697 0.0 
4.25832 3.98976 0.0 
4.39153 3.97782 0.0 
4.01229 3.97705 0.0 
4.06076 3.97364 0.0 
4.47071 3.99684 0.0 
5.17269 4.12864 0.0 
4.25362 3.99528 0.0 
4.09808 4.03387 0.0 
4.0626 4.06689 0.0 
10.358 3.36045 0.0 
4.52163 4.00891 0.0 
4.50076 4.00467 0.0 
4.18843 3.95907 0.0 
4.00577 3.97873 0.0 
4.46517 4.03956 0.0 
4.66588 4.00096 0.0 
4.36002 3.99227 0.0 
4.27598 3.98499 0.0 
7.62224 2.88267 0.0 
7.22419 0.703495 0.0 
11.3876 0.270575 0.0 
4.39939 4.01093 0.0 
4.3038 4.02492 0.0 
4.18471 3.97029 0.0 
0 1.32856 0.0 
4.06531 4.00014 0.0 
4.28575 3.98985 0.0 
5.8599 3.0813 0.0 
4.0005 3.94996 0.0 
4.19342 3.98738 0.0 
9.58277 3.65337 0.0 
4.05342 3.98551 0.0 
4.04146 4.33384 0.0 
4.4408 4.00257 0.0 
14 7.50844 0.0 
4.6103 3.91602 0.0 
4.18449 4.02885 0.0 
4.14452 3.9866 0.0 
5.08836 3.97294 0.0 
4.01937 3.98978 0.0 
4.11575 4.03408 0.0 
4.44519 3.99758 0.0 
4.20274 4.07949 0.0 
5.28466 3.91791 0.0 
12.5015 1.14918 0.0 
4.09797 3.95385 0.0 
4.23052 4.09368 0.0 
4.20868 4.08388 0.0 
4.14096 3.98454 0.0 
5.1989 3.96192 0.0 
4.18997 3.98044 0.0 
13.7283 2.46074 0.0 
5.19774 4.16192 0.0 
4.21305 4.04637 0.0 
4.41781 4.02629 0.0 
5.25687 4.08276 0.0 
4.39343 4.01392 0.0 
4.23245 4.07454 0.0 
4.52123 3.9793 0.0 
4.00535 3.95189 0.0 
8.82235 8 0.0 
4.50191 4.01653 0.0 
4.50378 4.02383 0.0 
4.52185 4.01325 0.0 
4.2355 4.09935 0.0 
4.18244 3.97533 0.0 
4.00011 4.0245 0.0 
12.282 6.14856 0.0 
3.757 4.33899 0.0 
14 0.779668 0.0 
0 1.05753 0.0 
4.15924 4.04221 0.0 
4.18825 4.05414 0.0 
4.549 4.03747 0.0 
4.18122 3.97184 0.0 
4.34456 4.01196 0.0 
0.417479 6.31883 0.0 
6.6627 2.29498 0.0 
4.01369 3.97538 0.0 
4.68931 4.01592 0.0 
4.13982 3.99541 0.0 
4.05777 3.99796 0.0 
4.1403 4.03691 0.0 
5.29962 4.33026 0.0 
3.99105 3.58753 0.0 
4.57553 4.01147 0.0 
3.99155 4.04247 0.0 
3.99093 4.05263 0.0 
3.98858 4.04648 0.0 
3.97296 4.00674 0.0 
11.3714 7.19716 0.0 
9.192 5.81999 0.0 
5.51927 4.14829 0.0 
4.48681 4.6073 0.0 
0.255049 4.91374 0.0 
4.67134 3.89044 0.0 
4.42778 4.01198 0.0 
11.016 2.69137 0.0 
2.30378 3.03595 0.0 
13.6419 7.13928 0.0 
3.53436 0 0.0 
7.40997 8 0.0 
4.4704 4.03986 0.0 
2.86414 6.59491 0.0 
4.50624 4.02709 0.0 
4.06419 4.05585 0.0 
4.38866 3.97675 0.0 
5.30281 4.05753 0.0 
4.09211 4.58237 0.0 
4.22569 4.06557 0.0 
6.78993 2.13526 0.0 
6.95076 5.01827 0.0 
0.846754 0.565038 0.0 
4.26408 3.97779 0.0 
4.06328 4.04721 0.0 
4.45817 4.02198 0.0 
0.21871 6.38501 0.0 
7.59973 7.22298 0.0 
12.6277 1.80732 0.0 
14 4.58149 0.0 
5.85073 0.410811 0.0 
13.0902 7.46595 0.0 
1.21403 8 0.0 
4.02912 3.96643 0.0 
3.9878 3.95947 0.0 
4.5031 4.02642 0.0 
4.43613 4.48535 0.0 
4.51303 3.98607 0.0 
4.45447 4.02194 0.0 
4.02321 3.97318 0.0 
3.96066 4.00697 0.0 
4.0897 4.03015 0.0 
4.91438 3.98151 0.0 
4.55296 4.00052 0.0 
13.1661 5.68046 0.0 
13.7895 0 0.0 
4.10795 4.02897 0.0 
4.11043 3.95063 0.0 
11.4357 2.10385 0.0 
4.36083 4.01205 0.0 
5.08988 3.98786 0.0 
4.00791 4.0033 0.0 
4.0088 3.9805 0.0 
9.75515 2.36072 0.0 
4.48589 4.00684 0.0 
4.36105 3.99575 0.0 
4.02947 3.97325 0.0 
4.22637 5.10161 0.0 
4.6454 3.91884 0.0 
4.32925 5.60677 0.0 
13.0308 3.29431 0.0 
4.01129 4.00596 0.0 
4.38809 4.01643 0.0 
5.1816 3.9993 0.0 
4.77849 3.89569 0.0 
4.38562 3.98143 0.0 
4.01755 3.97046 0.0 
3.99422 4.06419 0.0 
4.05626 4.04136 0.0 
3.99071 4.07207 0.0 
12.8262 0.36596 0.0 
4.31433 3.99365 0.0 
4.02022 3.98428 0.0 
4.00498 4.00961 0.0 
4.05373 4.0206 0.0 
4.0593 4.0207 0.0 
4.45306 4.0238 0.0 
4.00485 3.95979 0.0 
5.23197 3.94223 0.0 
4.15516 3.94365 0.0 
5.95549 3.88164 0.0 
4.01683 3.96357 0.0 
8.32777 8 0.0 
4.19264 4.05366 0.0 
4.05396 4.05232 0.0 
4.41453 3.97793 0.0 
4.39641 3.97994 0.0 
4.40106 3.98006 0.0 
4.21084 3.98015 0.0 
6.95962 7.64891 0.0 
4.00437 3.9841 0.0 
8.0852 4.98963 0.0 
4.0134 3.97877 0.0 
3.03193 6.72582 0.0 
4.12513 4.00394 0.0 
4.01079 3.9893 0.0 
4.67384 4.01435 0.0 
4.36156 4.08272 0.0 
4.31353 4.03982 0.0 
4.9657 3.98377 0.0 
4.05951 4.0424 0.0 
4.6235 3.98028 0.0 
3.90049 5.37652 0.0 
2.5098 3.59854 0.0 
4.21036 4.03335 0.0 
4.06463 4.00802 0.0 
4.21732 4.03352 0.0 
4.53888 4.02662 0.0 
11.5792 7.84461 0.0 
0.551344 1.2516 0.0 
4.35749 4.00877 0.0 
4.02575 3.96118 0.0 
5.13836 4.10355 0.0 
4.01703 7.79668 0.0 
6.70909 6.94059 0.0 
4.57278 4.01594 0.0 
4.28054 4.04404 0.0 
4.27483 3.99115 0.0 
4.32637 4.10272 0.0 
4.39831 4.01807 0.0 
3.85172 3.1591 0.0 
11.8351 6.74811 0.0 
4.11925 3.9757 0.0 
4.1127 3.96242 0.0 
4.51067 4.03033 0.0 
4.46892 3.97788 0.0 
4.15116 3.93854 0.0 
4.13176 4.07898 0.0 
10.2186 2.28825 0.0 
4.17696 4.04604 0.0 
4.29357 4.04116 0.0 
4.19496 4.04631 0.0 
4.00238 3.93806 0.0 
4.00279 3.99128 0.0 
4.05385 4.00986 0.0 
4.27449 3.9878 0.0 
4.85809 4.01513 0.0 
4.08807 4.03897 0.0 
4.66615 4.02354 0.0 
6.32476 7.00417 0.0 
12.5996 5.63737 0.0 
4.66222 4.02916 0.0 
4.19855 4.03407 0.0 
4.3507 4.01258 0.0 
4.88071 3.97984 0.0 
4.98663 3.97562 0.0 
5.52998 3.6638 0.0 
4.20862 3.97868 0.0 
11.5808 3.97719 0.0 
4.53335 4.00328 0.0 
4.24528 3.98637 0.0 
[...]
<PointData>
  <DataArray type = "Float64" Name="Vitesse" NumberOfComponents="3" format="ascii">
1 0 0.0 
1.0001 0 0.0 
0.999935 0 0.0 
1 0 0.0 
1.00309 -0.0147864 0.0 
0.845749 -0.405965 0.0 
0.764477 0.172114 0.0 
1.03534 0.0447 0.0 
0.368374 0.00647273 0.0 
0.273527 0.0144253 0.0 
0.685418 0.0106375 0.0 
0.973135 -0.0296639 0.0 
0.997275 -0.00597806 0.0 
0 0 0.0 
0.876926 -0.0938444 0.0 
1.00395 0.000123375 0.0 
0.234294 0.00636902 0.0 
0.776885 0.19808 0.0 
0.684687 0.190178 0.0 
0 0 0.0 
0.00760336 7.74126e-05 0.0 
0.0567634 0.00340814 0.0 
0.999998 0.000129505 0.0 
0.040111 -0.00330911 0.0 
0 0 0.0 
0.975165 -0.0521427 0.0 
0.0794317 -0.0090592 0.0 
0.405365 -0.0196396 0.0 
0.123926 -0.00175766 0.0 
0.999971 -0.000110567 0.0 
1.00019 0 0.0 
0.999973 -0.000165925 0.0 
0.999936 -8.22979e-07 0.0 
0.735683 0.164352 0.0 
1.00089 0 0.0 
0.737413 0.0936986 0.0 
0.545619 0.0607338 0.0 
0.000822248 6.87122e-05 0.0 
1.00064 0 0.0 
0.00422242 0.000168318 0.0 
0.0946802 -0.0105987 0.0 
0.000831491 9.26538e-05 0.0 
0.170863 -0.0200713 0.0 
1 0 0.0 
-1.19279e-44 -9.45171e-46 0.0 
0.0191049 -0.00219588 0.0 
0.268074 0.0061824 0.0 
2.4609e-142 6.33847e-144 0.0 
0.0130893 0.000338795 0.0 
0 0 0.0 
0.269183 0.00639751 0.0 
0 0 0.0 
0.0484843 0.00117817 0.0 
0.697746 -0.0475743 0.0 
0.0260982 0.00180746 0.0 
0.33259 -0.0179511 0.0 
0.58611 -0.000445679 0.0 
0.14095 -0.0105025 0.0 
0.76902 0.105978 0.0 
0.25653 -0.0241588 0.0 
0 0 0.0 
5.97435e-131 -3.44888e-132 0.0 
1.03439 -0.0960436 0.0 
0.929175 0.316266 0.0 
0.0346169 -0.00400221 0.0 
0.723023 0.310654 0.0 
0 0 0.0 
1.00362 0 0.0 
1.00018 -0.000161043 0.0 
0.0232619 -0.00191387 0.0 
0.0487871 0.00208761 0.0 
0.395475 0.00825794 0.0 
0.112382 -0.019917 0.0 
0.999032 0.000626003 0.0 
1.01074 0.0500846 0.0 
0.80633 -0.0410796 0.0 
4.72692e-258 -4.94883e-260 0.0 
0.0337009 0.00129173 0.0 
0.371125 -0.0354717 0.0 
0.817892 0.23252 0.0 
0.856209 -0.0271841 0.0 
0.326308 -0.0281553 0.0 
0.0580093 0.00273762 0.0 
0.202082 0.0840397 0.0 
0 0 0.0 
0 0 0.0 
0.786168 -0.033599 0.0 
0.114906 -0.0188249 0.0 
0.355004 0.0155515 0.0 
0.727342 0.0679339 0.0 
0.341101 0.00645895 0.0 
0.999961 0.000120811 0.0 
0.214311 -0.0082044 0.0 
0 0 0.0 
0.861281 -0.137377 0.0 
0.166515 0.00472377 0.0 
0 0 0.0 
0.962507 0.0187784 0.0 
0.982587 -0.0670323 0.0 
1.00498 -0.00146757 0.0 
0.840525 0.221209 0.0 
0.87594 -0.124804 0.0 
0 0 0.0 
0.916921 0.324025 0.0 
1.00291 0.000569324 0.0 
0.398331 0.00474043 0.0 
0.0229243 0.00136868 0.0 
0.752427 0.107577 0.0 
1.41063e-05 9.61506e-08 0.0 
0.753144 0.131948 0.0 
0.159489 0.00421992 0.0 
0.688272 0.105596 0.0 
0.437013 0.135117 0.0 
0.7459 0.0773928 0.0 
0.353277 0.0129579 0.0 
0.051699 0.00282484 0.0 
0.0168309 -0.000864032 0.0 
0.322283 0.0123804 0.0 
0.00403577 -0.000360633 0.0 
1.00004 3.99506e-05 0.0 
1.00065 0.00169741 0.0 
0.305766 0.0144386 0.0 
0.739952 -0.0447232 0.0 
0.999901 -0.000485535 0.0 
0.0336293 0.00127964 0.0 
0.301679 0.00666671 0.0 
1.00391 -2.8553e-06 0.0 
0.662495 0.0303821 0.0 
0.188598 0.00452958 0.0 
0.834405 0.0198983 0.0 
0.909753 -0.0746894 0.0 
0.230676 0.00466514 0.0 
2.64037e-07 -4.1182e-08 0.0 
0.378591 -0.0302686 0.0 
0.751659 0.0343092 0.0 
0.589091 0.0853926 0.0 
0.301094 0.00574473 0.0 
0.204155 0.0972963 0.0 
5.93059e-86 -6.16339e-87 0.0 
0.438995 0.00383984 0.0 
1.01049 -0.0391419 0.0 
0.305647 0.00660579 0.0 
0.999937 0 0.0 
0.831933 -0.0549888 0.0 
0.921427 -0.0406015 0.0 
1.00215 -0.000573381 0.0 
2.73621e-256 1.71915e-256 0.0 
1.00448 0.00508449 0.0 
1.00239 -0.00181634 0.0 
0 0 0.0 
0.825604 -0.0615403 0.0 
1.00227 0.000535036 0.0 
1.00046 -0.000140489 0.0 
0.342733 0.00667089 0.0 
0.225474 0.00536942 0.0 
0.999983 9.35745e-05 0.0 
-2.97106e-217 4.489e-218 0.0 
0.623341 -0.0103471 0.0 
1.98248e-261 -4.57516e-262 0.0 
0 0 0.0 
0.984726 -0.207745 0.0 
1.00294 0 0.0 
0.173064 -0.0197873 0.0 
0 0 0.0 
0.141889 0.0104198 0.0 
0.00222267 -0.000371231 0.0 
0.666982 0.0459711 0.0 
0.439589 0.00247985 0.0 
0.125985 -0.0154843 0.0 
1.00802 -0.0123208 0.0 
0.131336 -0.0225452 0.0 
0.873427 -0.111242 0.0 
0 0 0.0 
8.53914e-06 -1.04697e-06 0.0 
2.43517e-05 1.6422e-07 0.0 
3.93761e-266 -1.66262e-267 0.0 
1.00279 -0.000570753 0.0 
0 0 0.0 
0.127892 -0.0144941 0.0 
0 0 0.0 
0.531055 0.309663 0.0 
0.146234 -0.0174732 0.0 
1.00037 -0.000177743 0.0 
7.95463e-136 -1.23593e-137 0.0 
0.73525 -0.0156063 0.0 
0.606333 0.0339781 0.0 
0.999879 0.000112922 0.0 
1 0 0.0 
1.00011 2.42025e-05 0.0 
0 0 0.0 
5.48638e-06 -9.31431e-08 0.0 
0.176616 -0.0202119 0.0 
0.999867 0.000133987 0.0 
0.11369 0.00362276 0.0 
0.999719 -2.28004e-05 0.0 
0.0651028 -0.012769 0.0 
0.0174384 0.0014929 0.0 
0.983855 -0.0920976 0.0 
0.91701 -0.350166 0.0 
0.0191124 0.000122519 0.0 
1.0001 -0.00072381 0.0 
0.951975 0.103489 0.0 
0.784455 -0.0529267 0.0 
1.01146 0.00975039 0.0 
1.00143 -0.00313218 0.0 
0.0363461 -0.00142242 0.0 
1.01171 0.0105454 0.0 
0.544762 -0.0442681 0.0 
0.210912 0.00847002 0.0 
0.306608 0.00684599 0.0 
0.973389 -0.0105461 0.0 
1.00014 0.000123721 0.0 
0.263548 0.00785434 0.0 
1.09296 0.0641821 0.0 
0.999793 0.00031443 0.0 
0.999778 -0.000140744 0.0 
2.80631e-171 -3.40591e-172 0.0 
0.273463 0.0073499 0.0 
0.000596946 -2.61297e-05 0.0 
0.913308 0.0143084 0.0 
1.01182 -0.263493 0.0 
1.00556 0.00712861 0.0 
1.00361 -0.00775888 0.0 
1.14542e-134 3.12881e-135 0.0 
0.447407 -0.0304812 0.0 
1.00045 0.000709613 0.0 
0.0165654 -0.00298366 0.0 
1.00299 -0.000396679 0.0 
1.00003 0.000120481 0.0 
0.281753 -0.0281457 0.0 
0.197752 0.00459641 0.0 
0.999936 -1.89697e-06 0.0 
0.999543 0.00186651 0.0 
0.999936 -1.38392e-06 0.0 
0.0258158 0.000959361 0.0 
0.279773 0.0075203 0.0 
0.931543 -0.338585 0.0 
0.591184 -0.0573986 0.0 
0.0185397 0.0002423 0.0 
0.989841 -0.026529 0.0 
1.63367e-128 7.66928e-130 0.0 
3.53145e-255 5.16883e-256 0.0 
1.03524 0.255312 0.0 
0.999808 0.000367319 0.0 
0.000209241 -2.40055e-05 0.0 
9.04143e-89 2.46196e-90 0.0 
0.672426 -0.0069105 0.0 
0.897457 -0.384956 0.0 
0.199316 -0.0217931 0.0 
0.205463 0.00787477 0.0 
0.0401277 0.000960728 0.0 
0.119911 0.00550532 0.0 
1.00002 0.00343822 0.0 
1.00244 0.000685942 0.0 
1.00027 3.91389e-05 0.0 
0 0 0.0 
0 0 0.0 
0.416746 0.00321148 0.0 
1 0 0.0 
0 0 0.0 
0.0420799 0.00140037 0.0 
1.00806 0.0056727 0.0 
0.949745 -0.218928 0.0 
0.0309017 0.00253454 0.0 
0.999503 0.000494421 0.0 
0.0460834 8.30793e-05 0.0 
1.0204 0.0576524 0.0 
1.14286e-173 8.12342e-175 0.0 
0.999935 -1.53503e-06 0.0 
0.956905 0.0289123 0.0 
0 0 0.0 
0.0131426 0.00158594 0.0 
0.598802 0.0106545 0.0 
2.35222e-84 -7.31042e-85 0.0 
0 0 0.0 
0.000502397 3.40446e-06 0.0 
0.959537 0.0613338 0.0 
0.888683 0.0110388 0.0 
1.00013 7.50744e-05 0.0 
0.971715 -0.0806969 0.0 
1.07232 0.0542872 0.0 
1.00876 0.0623363 0.0 
0.0602262 0.00189412 0.0 
0.678473 0.0120438 0.0 
0.177459 0.00486506 0.0 
1.00004 4.67555e-05 0.0 
1.00771 -0.0263952 0.0 
0.0701434 -0.00275265 0.0 
0.000341798 -6.73914e-05 0.0 
0.882047 -0.0251591 0.0 
0 0 0.0 
0.815451 0.0259309 0.0 
0.301438 0.00867475 0.0 
0.963637 -0.231417 0.0 
1.00047 0 0.0 
0.021655 -0.00315953 0.0 
0.0749806 -0.0102588 0.0 
0.0204169 -0.00356713 0.0 
1.09948 0.0545497 0.0 
0.295967 0.00499029 0.0 
0.662735 0.312477 0.0 
0.999918 -3.3122e-06 0.0 
0.985801 0.0316749 0.0 
1.00009 1.70472e-05 0.0 
1 0 0.0 
4.15454e-05 -1.015e-06 0.0 
0.348206 0.0131341 0.0 
0.255543 -0.032707 0.0 
0.381067 0.00364102 0.0 
0 0 0.0 
1.00003 0.000326588 0.0 
1.00343 0.00337843 0.0 
0.951482 -0.328672 0.0 
0.226387 -0.0089452 0.0 
0 0 0.0 
-5.26315e-230 9.17771e-232 0.0 
0 0 0.0 
1.01097 -0.0213117 0.0 
1.00665 -0.0338346 0.0 
0.0616798 -0.0185981 0.0 
0.789436 0.218234 0.0 
0.832606 0.204484 0.0 
0.805528 0.200778 0.0 
0.676605 -0.0137241 0.0 
0.999953 -3.22437e-05 0.0 
0.99972 -0.000478371 0.0 
1.00017 -0.025416 0.0 
1.03237 0.00270127 0.0 
0.99999 0.000206548 0.0 
1.01348 0.0264282 0.0 
0 0 0.0 
1.00001 0.0002913 0.0 
0.998549 -0.00199746 0.0 
0.999936 -1.56858e-06 0.0 
1.00247 0 0.0 
1.00147 0 0.0 
0.208188 -0.0227266 0.0 
1.00227 0.00214887 0.0 
0.105596 -0.0139108 0.0 
0.980477 0.252553 0.0 
0.29624 0.00774159 0.0 
0.776442 -0.0199041 0.0 
1.02149 0.025838 0.0 
0.617282 0.0145473 0.0 
1.00305 0.00295432 0.0 
0.99822 -0.00455908 0.0 
1.00011 -0.000160969 0.0 
0.250518 0.00583074 0.0 
0.820116 0.210738 0.0 
0.0137578 -0.00241938 0.0 
1.00001 0.000162604 0.0 
1.00116 -0.000704819 0.0 
1.00009 9.46535e-05 0.0 
0.999967 1.7068e-05 0.0 
1.00358 0.000202375 0.0 
0.999936 -2.01854e-06 0.0 
1.0004 0 0.0 
1.02292 -0.245686 0.0 
0.888557 -0.21762 0.0 
0.0963754 -0.0127732 0.0 
1.04054 0.00490615 0.0 
0.197074 0.00488923 0.0 
0.00873141 -0.0018337 0.0 
0.950987 -0.259708 0.0 
0.748841 -0.0124697 0.0 
-7.78395e-221 -9.73172e-222 0.0 
0.487785 0.012828 0.0 
9.84428e-91 -1.58846e-91 0.0 
0.999934 1.14425e-05 0.0 
1.0001 0 0.0 
0 0 0.0 
0.985094 -0.071951 0.0 
1.0001 0.000218774 0.0 
0 0 0.0 
0.533225 0.00596136 0.0 
0 0 0.0 
0.879276 -0.366537 0.0 
1.0001 0.000664384 0.0 
6.4709e-181 3.7358e-182 0.0 
-1.40215e-43 1.3885e-45 0.0 
0.900373 -0.209758 0.0 
1.01325 0.00672468 0.0 
0.934813 0.031366 0.0 
1.00883 0.00250462 0.0 
0.999997 7.51039e-05 0.0 
0 0 0.0 
0 0 0.0 
0.547598 0.00119612 0.0 
0.987156 0.0250607 0.0 
0.220771 0.00649103 0.0 
0.996119 -0.302665 0.0 
0.872069 0.199917 0.0 
0.694349 0.18601 0.0 
0.886656 0.181851 0.0 
1.00014 2.0568e-05 0.0 
0.000452589 2.98083e-05 0.0 
0.473703 -0.121376 0.0 
0.0700664 0.0591251 0.0 
0 0 0.0 
0 0 0.0 
0.0219474 -0.00332161 0.0 
0.952128 -0.263046 0.0 
0.785911 0.0133186 0.0 
0.98239 -0.0459921 0.0 
0.977484 0.00989347 0.0 
1.00799 -0.281207 0.0 
1.00073 0 0.0 
0.322441 0.0100079 0.0 
0.964959 0.272506 0.0 
0.284435 0.0073483 0.0 
0.247605 0.00690319 0.0 
0.247082 0.00689483 0.0 
0.189484 0.00389532 0.0 
1.00192 -0.000385593 0.0 
0.806712 -0.412586 0.0 
0.998674 -0.00124279 0.0 
0.892841 -0.318338 0.0 
1.00257 0.00191555 0.0 
0 0 0.0 
0.311119 -0.111728 0.0 
0.204982 -0.00742721 0.0 
0.83616 -0.0244182 0.0 
0.0213882 -0.00155218 0.0 
0.499059 0.0109842 0.0 
0.695072 0.179968 0.0 
0.332502 0.0302032 0.0 
1.00749 0.00659007 0.0 
0.996555 -0.00116445 0.0 
0 0 0.0 
1e-307 1e-307 0.0 
0 0 0.0 
0.133411 -0.0193602 0.0 
0.99996 -5.63237e-06 0.0 
1.00003 -0.000208981 0.0 
0 0 0.0 
1.03842 -0.253494 0.0 
0.943498 -0.0277354 0.0 
1.00352 0.000148519 0.0 
1.00212 -0.00131802 0.0 
0.0792496 -0.0247399 0.0 
0.0628105 -0.00270772 0.0 
0.0134228 0.00169368 0.0 
1.05643 0.00117364 0.0 
0 0 0.0 
1.00419 -0.0134063 0.0 
0.999929 -2.14402e-05 0.0 
0.32029 -0.00181421 0.0 
0.741789 -0.0359866 0.0 
0.141115 -0.0178417 0.0 
0.301962 0.00781099 0.0 
1.03169 -0.0553028 0.0 
1.07634 0.153804 0.0 
1.00011 0.000486977 0.0 
0.0866174 0.00579651 0.0 
0.0218076 -0.00172933 0.0 
0.0802805 0.00210852 0.0 
0.967532 -0.18957 0.0 
0.500231 -0.349276 0.0 
0 0 0.0 
0.069445 0.00438432 0.0 
0.377763 -0.00696773 0.0 
0.181657 0.0325359 0.0 
0.234894 -0.0183419 0.0 
1.00272 -0.00124705 0.0 
0.999921 1.3365e-05 0.0 
0.269951 -0.0249721 0.0 
0 0 0.0 
0 0 0.0 
0.483337 0.015375 0.0 
0.550978 0.0130474 0.0 
1.01113 0.00678894 0.0 
0.219752 0.00442842 0.0 
0.999891 0.000131577 0.0 
1.06383e-88 -1.18306e-89 0.0 
0.081131 0.00323307 0.0 
1.00761 -0.00713943 0.0 
0.715089 0.0223591 0.0 
0.999858 -3.82867e-05 0.0 
1.00017 -0.00591235 0.0 
1.00002 -6.37912e-05 0.0 
0.877153 0.0192148 0.0 
0.00156711 3.87396e-05 0.0 
0.30892 0.0281 0.0 
0.18804 -0.0265756 0.0 
1.03521 -0.00612305 0.0 
1.00131 -0.000589778 0.0 
0.0451061 -0.0064236 0.0 
0.998236 -0.00338356 0.0 
0.994037 0.00613878 0.0 
0.999103 0.000245634 0.0 
1.001 0.00189016 0.0 
1.00094 0.0073656 0.0 
0.982454 -0.0148627 0.0 
0.0794216 0.00220424 0.0 
0.992327 0.00954902 0.0 
0.999993 3.73566e-05 0.0 
1.00357 -9.45531e-05 0.0 
0.918643 0.00553282 0.0 
0.563621 0.0149944 0.0 
0.159376 -0.0252414 0.0 
0.301381 -0.0334295 0.0 
1.0037 6.34885e-06 0.0 
0.459862 -0.00252705 0.0 
0.99889 -0.00228785 0.0 
0.340067 0.00827464 0.0 
0.000895226 -3.64995e-05 0.0 
1.00065 0.00150349 0.0 
0.707994 -0.0455707 0.0 
0.278649 -0.0306378 0.0 
1e-307 1e-307 0.0 
0.915321 -0.0235104 0.0 
0.18404 0.00542304 0.0 
0.133199 -0.017378 0.0 
0.964123 -0.0409547 0.0 
0.358858 -0.147642 0.0 
-8.30357e-228 1.44795e-229 0.0 
0 0 0.0 
1.00001 -0.000152013 0.0 
1.03799 -0.189638 0.0 
0.96532 -0.32533 0.0 
1.07714 0.0893539 0.0 
0.412658 -0.0285504 0.0 
1.00193 0 0.0 
1.00268 -0.00249491 0.0 
0 0 0.0 
1.00578 -0.0120381 0.0 
1.01813 0.0234905 0.0 
0.486737 0.0110641 0.0 
0.644329 -0.00374997 0.0 
1.00057 0.0013843 0.0 
0.382945 0.00887668 0.0 
1.0001 1.63055e-05 0.0 
1.00469 -0.00203565 0.0 
0.99919 0.0263482 0.0 
-1.28173e-295 -9.69944e-297 0.0 
0.433998 -0.0596456 0.0 
0.139671 0.0336518 0.0 
0.999069 -0.114884 0.0 
0.788289 0.343935 0.0 
0.404333 0.0194419 0.0 
0.0262593 0.00214429 0.0 
0.202423 -0.0263144 0.0 
0.428047 0.00631526 0.0 
0.814139 0.145567 0.0 
0.246968 0.017086 0.0 
0.00183398 3.55663e-05 0.0 
0.194666 0.0149324 0.0 
0.956782 -0.0257962 0.0 
0.978357 0.0151958 0.0 
0.279354 -0.172665 0.0 
0 0 0.0 
0.0660721 -0.00331231 0.0 
0.0882801 -0.0088012 0.0 
1.00252 0.000142788 0.0 
0.994942 -0.0120438 0.0 
0.213891 0.0958294 0.0 
0.0198859 -0.00414691 0.0 
-1.34941e-299 3.18066e-301 0.0 
1.00226 0.00503221 0.0 
0.690638 -0.0140322 0.0 
0.92853 -0.147178 0.0 
1.00001 0.00146946 0.0 
0.999968 -7.5918e-06 0.0 
0.999601 0.000688763 0.0 
1.00259 0.000275061 0.0 
0.997906 -0.000855244 0.0 
1.00225 -0.00136423 0.0 
0.999961 -3.73911e-05 0.0 
1.00378 -0.000714388 0.0 
0.183361 0.00495777 0.0 
0.0540053 -0.00732936 0.0 
9.79816e-05 8.93913e-06 0.0 
0 0 0.0 
0.999709 0.00079499 0.0 
1.02702 -0.0146043 0.0 
0.709659 0.017761 0.0 
1.06024 0.0578172 0.0 
0.000308165 2.72069e-05 0.0 
1.01759 -0.000443562 0.0 
0.806191 0.320035 0.0 
0.183045 0.0056369 0.0 
0.263289 -0.178284 0.0 
0.999936 0.000705178 0.0 
0.99986 0.000803283 0.0 
1.0008 0.0020628 0.0 
0 0 0.0 
0 0 0.0 
0.253731 -0.0499281 0.0 
0.757335 -0.0242676 0.0 
0 0 0.0 
0.0664662 -0.00603596 0.0 
0.894736 0.199204 0.0 
0.999536 0.00514405 0.0 
1.81237e-262 -7.65256e-264 0.0 
0.811773 0.109922 0.0 
1.00011 0.00078508 0.0 
0.340407 0.00841232 0.0 
1.03649 0.215581 0.0 
0.200988 0.005528 0.0 
0.712926 0.000307736 0.0 
-1.25692e-297 1.95235e-297 0.0 
0.95858 0.0306861 0.0 
0.00936616 -0.00166094 0.0 
0.99976 -0.0271005 0.0 
1.0004 -0.00061247 0.0 
0.963901 -0.284036 0.0 
0.999975 -0.000528923 0.0 
0.0918433 0.0321414 0.0 
0.926411 -0.305937 0.0 
0.997446 -0.000727511 0.0 
0.999398 0.000776475 0.0 
1.00423 -0.000818741 0.0 
0.0209114 -0.00504722 0.0 
1.00001 -0.000164606 0.0 
0.999936 -1.37799e-06 0.0 
0 0 0.0 
0.999868 0.000375731 0.0 
0.470654 -0.00336234 0.0 
1.0261 0.237995 0.0 
1.00058 0.000400386 0.0 
0 0 0.0 
1.00023 0.00034403 0.0 
1.00111 0 0.0 
0.998362 0.0224074 0.0 
1.00018 -0.000139771 0.0 
1.00906 0.00114493 0.0 
0.205765 0.00569339 0.0 
1.00025 -0.00332583 0.0 
1.00277 -0.00104363 0.0 
0.999942 3.03589e-06 0.0 
0.999791 0.000590576 0.0 
0.649298 0.0145732 0.0 
0.706862 0.0913103 0.0 
0 0 0.0 
1.00427 6.91923e-06 0.0 
0.00262303 -0.000606693 0.0 
1.00141 0.00180776 0.0 
0.00361041 0.000208248 0.0 
0.953101 0.00610704 0.0 
0.338586 -0.0275351 0.0 
0 0 0.0 
0.036551 0.0463102 0.0 
1.00044 0.000605468 0.0 
0.798371 0.127328 0.0 
1.01089 0.00730142 0.0 
1.00003 0.00029589 0.0 
1.00004 0.000461376 0.0 
0.0811502 0.0458377 0.0 
1.00474 0.00175878 0.0 
0.996533 -0.00759478 0.0 
0.999969 5.98255e-05 0.0 
1.02667 0.00971086 0.0 
1.00324 -0.0240534 0.0 
1.00363 9.01217e-05 0.0 
1.01841 0.00639225 0.0 
0.999467 0.000129827 0.0 
1.00093 0.00180116 0.0 
1.0121 0.182886 0.0 
0 0 0.0 
0.41965 -0.0128282 0.0 
0.462749 -0.00979435 0.0 
1.00828 0.00972339 0.0 
0.404427 0.000899696 0.0 
0.000200883 -2.10701e-05 0.0 
0.275375 -0.328372 0.0 
1.01208 0.222709 0.0 
0.99997 -2.04338e-05 0.0 
1.00484 -0.000283904 0.0 
1.02019 0.0154251 0.0 
0.338977 0.00528776 0.0 
0.999755 -5.03275e-05 0.0 
0.998251 -0.00114899 0.0 
1.00025 4.96703e-05 0.0 
1.00001 -3.69702e-05 0.0 
0.91561 0.294285 0.0 
1.00039 0.000307788 0.0 
0.16419 0.00433197 0.0 
0.981573 0.00525052 0.0 
1.03805 -0.060134 0.0 
0.0437694 -0.00247665 0.0 
0.453488 -0.0193469 0.0 
0.241195 0.0244932 0.0 
0.276581 0.0073975 0.0 
1.00333 0.000141361 0.0 
0 0 0.0 
0.993996 0.0595046 0.0 
1.00538 0.00685771 0.0 
1.00572 0.000260614 0.0 
1.00299 0.000232907 0.0 
1.00028 -0.00275166 0.0 
1.00006 -0.00146421 0.0 
0.21075 0.0187231 0.0 
0.870725 0.0324749 0.0 
0.901547 -0.00941686 0.0 
0.540849 -0.0138058 0.0 
1.00078 0.00252409 0.0 
0.0323165 -0.0171978 0.0 
0.0402519 -0.00676774 0.0 
0.153458 -0.0288821 0.0 
0.836686 0.0194059 0.0 
0.0479474 0.00144271 0.0 
0.893238 -0.0817092 0.0 
0.536577 0.0165925 0.0 
1.00011 -0.00629537 0.0 
0.99998 4.78951e-05 0.0 
0.640129 -0.0518844 0.0 
1.00178 0.00526422 0.0 
1.0174 -0.0515099 0.0 
1.0012 -0.00379666 0.0 
0.201893 -0.000769336 0.0 
1.00499 0.000910379 0.0 
0 0 0.0 
1.00447 -0.00150111 0.0 
0.997715 0.0061974 0.0 
0.99903 0.00418812 0.0 
1.00006 5.74085e-05 0.0 
1 5.13687e-183 0.0 
1.00159 -0.000477152 0.0 
0.0200698 0.000351821 0.0 
0.00302536 -2.08882e-05 0.0 
0.742943 0.0187748 0.0 
0.798023 -0.0306037 0.0 
1.00212 -0.00032415 0.0 
1.00424 -0.00195746 0.0 
4.59803e-07 -4.56435e-08 0.0 
0.0194388 -0.00340104 0.0 
0.999938 4.81677e-06 0.0 
0.0296276 -0.00494799 0.0 
0.163401 0.00424275 0.0 
1.01021 0.00798503 0.0 
1.00002 7.13655e-05 0.0 
0.744059 -0.0278006 0.0 
0.434164 0.202862 0.0 
0.352104 0.0234325 0.0 
0.0306269 -5.21158e-05 0.0 
0.999933 3.59497e-05 0.0 
0.999983 -0.000814088 0.0 
-3.21466e-216 -8.8476e-217 0.0 
1.00208 0.000675748 0.0 
1e-307 1e-307 0.0 
3.55208e-88 -1.12886e-90 0.0 
0.81737 -0.0193088 0.0 
0.999784 -3.39618e-05 0.0 
0.999803 -0.00056559 0.0 
0.961835 0.030554 0.0 
0.999992 0.000263998 0.0 
1.00196 -0.00301448 0.0 
1.00449 -0.00019375 0.0 
0.999591 1.36597e-05 0.0 
1.00113 -0.000315748 0.0 
1.03658 0.150177 0.0 
1.00412 0.00328621 0.0 
0.927172 -0.0254743 0.0 
0 0 0.0 
1.00011 -0.000167543 0.0 
0.946138 0.000812857 0.0 
1.00021 7.02736e-05 0.0 
0.0458142 0.000577776 0.0 
1.00001 -0.000230492 0.0 
0.999829 4.58535e-05 0.0 
0.985033 0.0478525 0.0 
0.870673 0.033731 0.0 
0.999898 1.45332e-05 0.0 
1.00137 0.00605364 0.0 
1.00532 -0.0030483 0.0 
1.00342 0.00163286 0.0 
1.00009 3.84212e-05 0.0 
1.00095 0.000561767 0.0 
0.999165 -0.000275278 0.0 
0.00454001 0.000311962 0.0 
0.999914 0.00132067 0.0 
0.999618 0.00177059 0.0 
1 0.000224715 0.0 
0.999938 2.10136e-05 0.0 
1.0416 0.0152327 0.0 
0.999963 3.41171e-05 0.0 
0.999707 2.43424e-05 0.0 
1.00248 0.000444937 0.0 
1.00733 -0.0034326 0.0 
0.999899 -5.14186e-06 0.0 
1.00171 -0.000425666 0.0 
0.999937 9.65095e-06 0.0 
0.999906 -2.18185e-05 0.0 
0.438111 0.00788127 0.0 
1.00008 0.000425123 0.0 
0.883962 -0.0377054 0.0 
1.00007 5.24283e-05 0.0 
0.999897 -2.94874e-05 0.0 
1.03482 -0.0256277 0.0 
1.00004 -5.30584e-05 0.0 
0.0158648 -0.00274887 0.0 
0 0 0.0 
0.982098 -0.0014981 0.0 
1.00832 0.0805349 0.0 
0.140406 0.0237843 0.0 
0.999931 -8.20336e-06 0.0 
1.00151 -0.00189129 0.0 
0.196517 -0.0228713 0.0 
0.258425 -0.0118696 0.0 
1.00006 -0.000597132 0.0 
0.999931 1.94782e-05 0.0 
0.999993 -4.42342e-05 0.0 
0.929252 -0.164157 0.0 
0.0159462 -0.00316645 0.0 
0.81863 0.127175 0.0 
1.0032 -0.000158648 0.0 
0.995152 0.20635 0.0 
0.411332 0.00607435 0.0 
0.404683 0.0335853 0.0 
4.97288e-95 -1.42125e-96 0.0 
0 0 0.0 
0.437315 -0.00120308 0.0 
1.00397 -0.00285944 0.0 
1.0013 -0.00613303 0.0 
0.900219 0.0758192 0.0 
1.00127 -0.000903954 0.0 
0.000453791 -2.90689e-05 0.0 
1.00374 -0.00181398 0.0 
1.01226 -0.00281414 0.0 
1.00129 0.0154884 0.0 
0.357681 -0.00747781 0.0 
1.00005 -0.00038905 0.0 
0.999931 2.42792e-07 0.0 
1.00119 -0.00202066 0.0 
0.999962 2.66083e-05 0.0 
0.374389 0.00885236 0.0 
0.43802 -0.039915 0.0 
0.357468 -0.00208556 0.0 
0.281461 0.0258702 0.0 
0.379827 -0.00259673 0.0 
1.00047 0.000240965 0.0 
0.913446 0.0161007 0.0 
1.00186 0.00243542 0.0 
0.790157 0.141551 0.0 
0.999838 -3.89638e-05 0.0 
1.00399 0.000532205 0.0 
1.00082 0.000812388 0.0 
0.99694 -0.000193434 0.0 
1.00153 0.00377062 0.0 
0.0392935 -0.00761836 0.0 