<VTKFile type="UnstructuredGrid" version="0.1" byte_order="LittleEndian">
  <UnstructuredGrid>
    <Piece NumberOfPoints="13503" NumberOfCells="26817">
      <Points>
        <DataArray type = "Float64" NumberOfComponents="3" format="ascii">
0 0 0.0 
14 0 0.0 
14 8 0.0 
0 8 0.0 
0.383893 2.91152 0.0 
9.54961 6.99546 0.0 
4.47115 4.06156 0.0 
9.40278 3.77707 0.0 
6.95089 7.06331 0.0 
4.1575 4.04291 0.0 
3.90869 3.96027 0.0 
4.07057 3.9639 0.0 
4.53824 7.43039 0.0 
11.7292 4.40308 0.0 
3.98741 4.04054 0.0 
3.98768 4.02653 0.0 
3.97181 4.08618 0.0 
4.19011 4.0495 0.0 
4.53789 4.0329 0.0 
4.12835 3.98654 0.0 
6.85326 7.27439 0.0 
4.47538 4.03375 0.0 
4.67405 4.10923 0.0 
4.1789 4.0308 0.0 
4.80484 4.03022 0.0 
4.61584 4.00791 0.0 
12.1265 0 0.0 
4.30349 3.99172 0.0 
12.9422 5.39236 0.0 
9.70352 1.23095 0.0 
4.84915 4.03246 0.0 
4.13489 4.05432 0.0 
3.93057 4.29291 0.0 
4.52628 3.99777 0.0 
11.7827 3.46281 0.0 
4.51872 3.99785 0.0 
14 4.58016 0.0 
0 3.36284 0.0 
4.93697 3.93496 0.0 
4.35435 4.03803 0.0 
4.00773 4.00001 0.0 
10.1734 4.4195 0.0 
4.0273 4.01367 0.0 
4.84784 6.69328 0.0 
4.1283 4.05438 0.0 
4.62342 4.01415 0.0 
1.48229 7.4999 0.0 
5.17517 4.1161 0.0 
4.38968 3.99491 0.0 
4.31394 4.0049 0.0 
7.6398 2.6807 0.0 
4.12607 4.05951 0.0 
4.21367 3.97319 0.0 
4.2483 4.03635 0.0 
4.0955 3.94899 0.0 
4.03444 4.04627 0.0 
4.00163 4.02959 0.0 
4.02005 3.99731 0.0 
5.23503 8 0.0 
13.6945 7.80328 0.0 
5.2927 4.05862 0.0 
13.1592 5.2511 0.0 
5.35828 4.09214 0.0 
4.27411 4.0429 0.0 
7.99609 6.1415 0.0 
14 5.30984 0.0 
4.76301 3.98347 0.0 
4.62554 3.98252 0.0 
1.33689 0.42959 0.0 
3.88281 3.53324 0.0 
4.88498 4.06106 0.0 
4.15825 4.03374 0.0 
4.04672 4.0202 0.0 
4.94501 3.90266 0.0 
4.90953 3.97583 0.0 
4.54772 3.97659 0.0 
3.96947 4.02134 0.0 
4.21303 3.97045 0.0 
5.28835 3.91341 0.0 
3.96297 3.96024 0.0 
4.09803 3.98339 0.0 
4.44948 4.01084 0.0 
4.09179 4.02837 0.0 
4.11692 3.94964 0.0 
6.98728 5.60342 0.0 
3.95785 3.95439 0.0 
4.09065 3.95069 0.0 
4.02972 4.04518 0.0 
8.94234 3.15875 0.0 
3.97141 4.03046 0.0 
4.00414 3.99309 0.0 
3.97561 4.03322 0.0 
3.97816 4.02179 0.0 
4.04633 4.03304 0.0 
3.96767 4.02507 0.0 
4.53971 3.97638 0.0 
4.18623 3.98699 0.0 
3.99816 4.00816 0.0 
4.54225 3.97864 0.0 
4.36144 4.0345 0.0 
4.15951 4.04428 0.0 
4.54991 3.98013 0.0 
4.11785 4.02706 0.0 
4.73521 7.52615 0.0 
0.33234 5.15195 0.0 
4.52549 3.98021 0.0 
10.0312 4.54546 0.0 
2.89316 5.49873 0.0 
7.54927 7.75374 0.0 
4.00296 3.93741 0.0 
4.22656 4.04477 0.0 
4.30092 6.5558 0.0 
7.12026 6.70684 0.0 
10.6153 7.62373 0.0 
5.05066 5.17276 0.0 
13.2145 4.44537 0.0 
4.19829 4.04423 0.0 
4.51893 4.0107 0.0 
6.37297 2.73989 0.0 
6.50541 6.65271 0.0 
4.0914 3.96216 0.0 
5.20281 3.96498 0.0 
4.45387 4.0204 0.0 
4.40131 4.69819 0.0 
4.65935 4.04515 0.0 
4.01079 3.9997 0.0 
4.05312 3.99197 0.0 
13.7435 8 0.0 
4.19029 4.07271 0.0 
6.67367 0 0.0 
4.00932 4.01975 0.0 
6.82471 4.26136 0.0 
4.20354 4.03712 0.0 
4.20802 4.04697 0.0 
4.5671 3.97265 0.0 
1.21548 8 0.0 
10.5319 2.82151 0.0 
9.95515 3.59841 0.0 
4.92834 0.227572 0.0 
13.1055 3.48759 0.0 
6.22735 7.50315 0.0 
5.99011 4.04483 0.0 
3.45028 4.08855 0.0 
5.18268 3.9437 0.0 
8.95603 7.57132 0.0 
4.22222 4.09636 0.0 
3.98122 4.01031 0.0 
6.19878 4.31872 0.0 
9.65423 4.26818 0.0 
4.08953 3.95497 0.0 
11.2705 7.61787 0.0 
4.67279 5.32736 0.0 
9.65721 5.90637 0.0 
4.96928 3.97464 0.0 
4.54778 4.01674 0.0 
4.44238 3.9962 0.0 
4.18074 4.21382 0.0 
2.41657 7.83798 0.0 
4.80927 4.525 0.0 
12.8532 4.11968 0.0 
4.09428 3.96323 0.0 
5.0604 3.97687 0.0 
4.02321 3.97317 0.0 
4.18332 3.96996 0.0 
13.8474 2.95036 0.0 
4.05827 4.04837 0.0 
0.845864 1.62601 0.0 
12.0372 1.49526 0.0 
4.19661 3.95666 0.0 
4.43943 3.99764 0.0 
10.9701 2.91026 0.0 
4.05399 4.05242 0.0 
5.11537 3.91723 0.0 
4.76354 3.99674 0.0 
0.348252 3.38737 0.0 
6.38052 3.13775 0.0 
5.9291 5.15993 0.0 
4.55556 3.99975 0.0 
4.03796 3.98522 0.0 
9.4176 1.73395 0.0 
4.33917 4.03838 0.0 
5.24537 4.1668 0.0 
2.78505 7.49804 0.0 
4.46368 4.04155 0.0 
4.49223 4.00862 0.0 
4.06062 3.97377 0.0 
8.35832 2.9685 0.0 
13.4699 7.45697 0.0 
6.64271 0.268558 0.0 
4.01229 3.97705 0.0 
4.10978 3.93374 0.0 
4.44673 4.02687 0.0 
11.095 3.73555 0.0 
4.09808 4.03387 0.0 
4.12139 4.03971 0.0 
4.00577 3.97873 0.0 
4.93652 4.08387 0.0 
6.11944 4.71929 0.0 
8.6802 3.80875 0.0 
4.60862 3.91749 0.0 
4.54088 4.00708 0.0 
4.0052 4.0005 0.0 
4.50104 4.42775 0.0 
7.63537 0.513534 0.0 
4.12609 4.06211 0.0 
4.4798 3.99763 0.0 
5.8599 3.0813 0.0 
9.90278 1.9712 0.0 
4.02686 4.06323 0.0 
4.05642 4.03077 0.0 
11.8107 0.651755 0.0 
4.53289 4.00658 0.0 
3.99586 4.00736 0.0 
6.73406 3.55117 0.0 
4.06166 4.07961 0.0 
4.38747 4.07947 0.0 
4.20274 4.07949 0.0 
0.898692 6.20579 0.0 
12.5015 1.14918 0.0 
4.09797 3.95385 0.0 
4.23052 4.09368 0.0 
4.20868 4.08388 0.0 
3.58178 4.19945 0.0 
0.262648 3.59518 0.0 
4.21025 4.03415 0.0 
4.04606 4.02962 0.0 
12.3038 5.2619 0.0 
2.31726 2.99552 0.0 
11.4878 0.917753 0.0 
3.98799 3.95955 0.0 
4.55143 4.02793 0.0 
8.82235 8 0.0 
4.23781 4.09881 0.0 
4.16892 4.04593 0.0 
4.69512 3.9114 0.0 
7.34292 5.19319 0.0 
4.06329 4.04721 0.0 
4.12582 4.04172 0.0 
4.18805 3.96826 0.0 
4.01845 4.01173 0.0 
7.56457 6.83703 0.0 
4.02586 3.98562 0.0 
0.417479 6.31883 0.0 
2.88066 4.03948 0.0 
13.1299 3.68601 0.0 
4.24651 3.9906 0.0 
2.66772 5.1655 0.0 
3.98977 4.04663 0.0 
3.99153 4.04254 0.0 
4.57553 4.01147 0.0 
4.47407 3.99664 0.0 
4.40209 3.99588 0.0 
1.47678 3.96708 0.0 
3.97296 4.00674 0.0 
11.3714 7.19716 0.0 
9.192 5.81999 0.0 
4.36015 4.03287 0.0 
3.53429 0 0.0 
4.67134 3.89044 0.0 
4.08953 4.02996 0.0 
4.14091 4.04918 0.0 
7.66358 7.40727 0.0 
10.2682 5.93402 0.0 
6.60362 4.13153 0.0 
4.45615 3.9961 0.0 
2.86414 6.59491 0.0 
7.19396 5.74117 0.0 
9.9204 3.84008 0.0 
0 4.58201 0.0 
4.00353 3.9915 0.0 
0.861823 0.804062 0.0 
6.78993 2.13526 0.0 
4.42421 4.02648 0.0 
0.846754 0.565038 0.0 
4.54395 3.89411 0.0 
4.47302 3.99608 0.0 
4.64417 3.91853 0.0 
4.02904 3.9664 0.0 
7.59973 7.22298 0.0 
12.6277 1.80732 0.0 
3.92593 3.99838 0.0 
5.85073 0.410811 0.0 
13.0902 7.46595 0.0 
3.7716 4.0082 0.0 
3.79815 4.13033 0.0 
4.47289 4.03853 0.0 
4.10776 4.04501 0.0 
5.74056 5.24446 0.0 
4.54793 4.00408 0.0 
4.51225 4.03393 0.0 
3.96066 4.00697 0.0 
4.85208 4.04382 0.0 
4.96395 4.01931 0.0 
13.1661 5.68046 0.0 
13.7895 0 0.0 
4.10795 4.02897 0.0 
13.4007 4.37273 0.0 
11.4357 2.10385 0.0 
4.3859 3.99591 0.0 
3.8444 4.30607 0.0 
4.00791 4.0033 0.0 
4.0088 3.9805 0.0 
9.75515 2.36072 0.0 
3.98226 4.07171 0.0 
4.08665 4.00486 0.0 
4.02947 3.97325 0.0 
4.05371 4.02059 0.0 
4.00045 4.00043 0.0 
4.01129 4.00596 0.0 
4.45613 4.02099 0.0 
4.29741 4.04219 0.0 
12.5186 3.64437 0.0 
4.15671 4.03735 0.0 
4.01755 3.97046 0.0 
4.52386 4.04096 0.0 
0.195775 6.68759 0.0 
2.38712 1.20485 0.0 
6.42419 4.18044 0.0 
6.51763 4.99306 0.0 
4.14309 4.04251 0.0 
4.0593 4.0207 0.0 
3.54809 5.65743 0.0 
12.5009 4.91062 0.0 
4.11868 3.97589 0.0 
4.15516 3.94365 0.0 
4.01695 3.96353 0.0 
4.05639 4.08852 0.0 
4.07133 3.98486 0.0 
4.01505 3.99463 0.0 
1.67428 8 0.0 
4.17493 4.7848 0.0 
4.2897 4.0416 0.0 
5.06461 4.08435 0.0 
4.00437 3.9841 0.0 
10.9442 5.59861 0.0 
4.0134 3.97877 0.0 
3.03193 6.72582 0.0 
10.2024 1.42429 0.0 
4.01079 3.9893 0.0 
3.85234 3.84195 0.0 
4.36156 4.08272 0.0 
2.48952 3.59766 0.0 
2.2035 6.21095 0.0 
4.05208 4.03029 0.0 
4.20001 4.03326 0.0 
4.26349 4.04221 0.0 
4.21639 4.03358 0.0 
7.36099 6.27735 0.0 
4.43456 4.02619 0.0 
11.5792 7.84461 0.0 
0.551344 1.2516 0.0 
4.02575 3.96118 0.0 
4.0219 3.98466 0.0 
6.49849 5.21743 0.0 
13.8045 1.5263 0.0 
1.3118 0 0.0 
4.64675 4.00457 0.0 
9.64772 0.994062 0.0 
4.26617 4.04413 0.0 
4.53119 4.02551 0.0 
11.8351 6.74811 0.0 
4.07126 3.98399 0.0 
4.1127 3.96242 0.0 
4.12801 3.98522 0.0 
4.15116 3.93854 0.0 
4.13176 4.07898 0.0 
10.2186 2.28825 0.0 
11.681 7.45325 0.0 
4.85957 4.01386 0.0 
12.4043 7.38649 0.0 
4.00279 3.99128 0.0 
4.05385 4.00986 0.0 
10.4393 2.36192 0.0 
4.04683 4.09671 0.0 
6.32476 7.00417 0.0 
12.5996 5.63737 0.0 
4.3398 4.03651 0.0 
4.06161 3.98518 0.0 
4.5539 3.99845 0.0 
2.21546 4.23608 0.0 
1.75175 2.27175 0.0 
10.7281 8 0.0 
8.5798 3.52169 0.0 
4.6192 3.98895 0.0 
4.34196 3.99343 0.0 
4.01037 4.03325 0.0 
5.35653 3.74718 0.0 
3.96806 4.01296 0.0 
11.0968 5.75296 0.0 
0 0.779097 0.0 
10.1578 0.327018 0.0 
10.4203 1.54278 0.0 
4.47824 3.99734 0.0 
0.407334 7.12572 0.0 
4.5467 4.03146 0.0 
4.24795 3.92322 0.0 
4.02916 3.98648 0.0 
4.53595 4.04072 0.0 
7.20657 5.05296 0.0 
4.34084 3.99279 0.0 
3.89698 3.99112 0.0 
13.4732 2.41076 0.0 
4.53295 4.01509 0.0 
4.07396 4.02843 0.0 
5.30644 0.173765 0.0 
0.198711 3.79297 0.0 
4.72583 0.194576 0.0 
3.90471 2.31823 0.0 
4.2621 4.5951 0.0 
1.32636 2.55501 0.0 
11.6082 0.209902 0.0 
4.36431 3.99372 0.0 
4.73668 3.89169 0.0 
4.04877 3.98924 0.0 
3.96886 4.00175 0.0 
4.64006 3.99672 0.0 
8.1402 3.13334 0.0 
10.9614 0.264514 0.0 
4.36426 4.03511 0.0 
4.82507 4.1106 0.0 
4.20848 4.10679 0.0 
7.30858 6.89242 0.0 
0.347962 1.57688 0.0 
4.15402 4.02776 0.0 
2.30888 7.10422 0.0 
7.00233 6.47926 0.0 
7.78364 0 0.0 
6.32437 6.34013 0.0 
4.51664 4.01272 0.0 
5.62592 4.80931 0.0 
4.7383 3.87602 0.0 
0.188432 7.25071 0.0 
12.8188 4.90255 0.0 
1.64832 6.43608 0.0 
13.7604 0.5867 0.0 
1.00096 5.14479 0.0 
4.06561 3.98728 0.0 
4.45564 4.02158 0.0 
4.25841 3.96952 0.0 
4.03014 4.02376 0.0 
3.99408 4.00918 0.0 
13.1736 7.26899 0.0 
4.81021 6.1434 0.0 
13.8706 3.37457 0.0 
10.6631 4.75828 0.0 
9.86174 5.5717 0.0 
8.95513 5.73616 0.0 
12.9001 7.58324 0.0 
3.89167 3.84702 0.0 
4.0213 4.02063 0.0 
7.05343 0.323278 0.0 
12.1245 5.96204 0.0 
5.09425 3.95125 0.0 
7.14156 0.150746 0.0 
4.09679 4.04359 0.0 
6.93364 7.85988 0.0 
4.03084 3.98417 0.0 
4.00001 3.89473 0.0 
6.31253 5.1012 0.0 
8.64936 2.61471 0.0 
9.46048 3.26649 0.0 
4.9959 3.9652 0.0 
7.18228 0.487344 0.0 
0.781752 2.06998 0.0 
4.47017 0.936125 0.0 
0.258476 5.79876 0.0 
6.57829 3.94553 0.0 
4.22688 4.04602 0.0 
9.40388 3.06557 0.0 
4.25815 7.05586 0.0 
3.90082 4.02239 0.0 
12.5421 5.28693 0.0 
4.00834 4.0373 0.0 
3.99662 4.01583 0.0 
[...]
<PointData>
  <DataArray type = "Float64" Name="Vitesse" NumberOfComponents="3" format="ascii">
1 0 0.0 
1.00512 0 0.0 
1.00377 0 0.0 
1 0 0.0 
0.999969 -0.000137435 0.0 
1.00541 -0.000271966 0.0 
0.502319 -0.0368647 0.0 
0.987362 0.00105573 0.0 
1.00625 -0.000258785 0.0 
9.97731e-07 9.21022e-08 0.0 
0.892222 -0.0517796 0.0 
0.874447 -0.0947557 0.0 
1.00524 0.00072692 0.0 
1.00927 -4.446e-05 0.0 
0.77423 0.197505 0.0 
0.682359 0.189167 0.0 
0.897657 0.137605 0.0 
0.183703 0.00436466 0.0 
0.182189 -0.0235884 0.0 
2.36694e-79 1.88337e-80 0.0 
1.00615 -0.000170515 0.0 
0.132705 -0.0159632 0.0 
0.959135 -0.0452918 0.0 
0 0 0.0 
0.371429 -0.0172308 0.0 
0.117917 -0.00177484 0.0 
1.00565 0 0.0 
0.014616 0.000475525 0.0 
1.00604 -0.000876106 0.0 
1.00626 8.19837e-05 0.0 
0.412504 -0.0165383 0.0 
0.538392 0.0592745 0.0 
0.992879 0.0591183 0.0 
0.0200807 -0.000500724 0.0 
1.00886 0.000483804 0.0 
0.0171365 0.000225829 0.0 
1.01175 -0.000800777 0.0 
1 0 0.0 
0.803972 0.0186915 0.0 
0.0490667 -0.0040033 0.0 
1e-307 1e-307 0.0 
1.00799 -0.000474524 0.0 
0 0 0.0 
1.00666 0.00134824 0.0 
0.577337 0.0709467 0.0 
0.132132 -0.00987183 0.0 
1.00059 0.000419154 0.0 
0.943104 -0.0160817 0.0 
0.011317 0.000863505 0.0 
4.27536e-199 3.96675e-200 0.0 
1.00715 0.000138424 0.0 
0.761539 0.104171 0.0 
0.33654 0.00464099 0.0 
0 0 0.0 
1.03212 -0.0970756 0.0 
0.924649 0.316331 0.0 
0.720048 0.309273 0.0 
0 0 0.0 
1.00569 0 0.0 
1.00393 -8.24971e-05 0.0 
0.695655 -0.0128429 0.0 
1.00584 -0.00111969 0.0 
0.857257 -0.0129374 0.0 
0.0320632 -0.00232942 0.0 
1.00642 -0.000678943 0.0 
1.0057 -0.00119675 0.0 
0.381403 0.0176189 0.0 
0.30063 0.0275426 0.0 
1.00034 -0.000232685 0.0 
0.999212 -0.0272844 0.0 
0.644319 -0.0270861 0.0 
0 0 0.0 
0 0 0.0 
0.94813 0.0166134 0.0 
0.503467 0.0139998 0.0 
0.347365 0.0152742 0.0 
0.725402 0.0673547 0.0 
0.396837 0.00410872 0.0 
0.891393 0.00954294 0.0 
0.859564 -0.137473 0.0 
0.0798376 0.0028601 0.0 
0 0 0.0 
0 0 0.0 
0.980782 -0.0677739 0.0 
1.00749 -0.00119288 0.0 
0.874184 -0.124913 0.0 
1.02725 -0.100939 0.0 
0.912654 0.323975 0.0 
1.00714 0.000149325 0.0 
0.750216 0.107101 0.0 
0.253278 -0.17549 0.0 
0.751047 0.131265 0.0 
0.686252 0.104807 0.0 
0.430585 0.132907 0.0 
0.743884 0.0768625 0.0 
0.34593 0.0128175 0.0 
0.0338486 0.000642195 0.0 
0.262994 0.187677 0.0 
0.315256 0.0122623 0.0 
0.0103671 -0.00165316 0.0 
0.0467585 0.00191599 0.0 
0.298749 0.0142602 0.0 
0 0 0.0 
1.00541 0.000528205 0.0 
0.999989 0.000294241 0.0 
0.283386 0.00838259 0.0 
1.00798 -0.000874046 0.0 
1.00129 0.00540631 0.0 
1.00579 -7.62345e-05 0.0 
0.967231 -0.188928 0.0 
0.0298689 -0.00123437 0.0 
1.00609 0.00238335 0.0 
1.00644 -0.000429417 0.0 
1.00493 -9.58206e-05 0.0 
1.01316 -0.000214513 0.0 
1.0089 -0.000885382 0.0 
0 0 0.0 
0.00535742 -0.00114052 0.0 
1.00783 0.000115311 0.0 
1.00679 -0.000303509 0.0 
0.822869 -0.0626093 0.0 
0.637323 0.0093745 0.0 
0 0 0.0 
1.02654 0.0119825 0.0 
0.396079 -0.0358073 0.0 
0 0 0.0 
0 0 0.0 
1.00388 0 0.0 
0.856704 0.0595982 0.0 
1.00583 0 0.0 
0.528938 0.307651 0.0 
1.00598 -0.00233536 0.0 
0 0 0.0 
0.0885813 0.00146561 0.0 
0.407637 0.0267691 0.0 
1.00042 0 0.0 
1.00699 0.000240523 0.0 
1.00792 0.000505293 0.0 
1.0047 -0.000254825 0.0 
1.01124 0.000260826 0.0 
1.00615 -5.17236e-07 0.0 
0.709458 -0.00575002 0.0 
0.980906 0.00546244 0.0 
0.754622 0.011566 0.0 
1.00538 -0.000126652 0.0 
1.08816 0.0641487 0.0 
0.60481 0.0330673 0.0 
1.00767 -0.00373652 0.0 
0.99686 -0.000451249 0.0 
0.977717 -0.0917128 0.0 
1.00476 -0.000100354 0.0 
1.01333 0.00363869 0.0 
1.00612 -0.000521065 0.0 
0.530576 0.0130219 0.0 
0.0602302 -0.0120535 0.0 
0.0141533 -4.00487e-05 0.0 
1.07266 0.0737325 0.0 
1.00167 0.000231608 0.0 
1.02413 -0.00699593 0.0 
0.915748 -0.00289878 0.0 
0.781829 -0.053841 0.0 
0.543653 0.0100379 0.0 
0.949951 -0.25906 0.0 
0.421234 0.00277753 0.0 
1.00624 0.00137196 0.0 
0.881695 0.242589 0.0 
1.00006 -0.000445386 0.0 
1.00614 0.000295151 0.0 
0.707333 -0.00860313 0.0 
-1.02701e-117 -1.03599e-118 0.0 
1.00711 0.000213117 0.0 
0.961909 0.274002 0.0 
0.886525 0.01203 0.0 
0.300881 0.00834413 0.0 
0.999969 -4.01979e-05 0.0 
1.00832 0.000233343 0.0 
1.00936 -0.0021714 0.0 
1.53809e-82 1.76927e-83 0.0 
0.129851 -0.0173012 0.0 
1.00653 9.76113e-05 0.0 
0.0340488 -0.00351983 0.0 
1.00348 -0.0128295 0.0 
1.00223 0.000806569 0.0 
0.212497 -0.0220147 0.0 
0 0 0.0 
0.586069 -0.0576399 0.0 
1.00718 0.000185746 0.0 
1.0041 -0.00021222 0.0 
1.00586 -7.74046e-05 0.0 
0.930459 -0.339071 0.0 
1.08019 -0.0941446 0.0 
0.0375894 -0.00507814 0.0 
0.990405 0.000557918 0.0 
0 0 0.0 
5.27193e-08 5.33315e-09 0.0 
0.895647 -0.385299 0.0 
0.815254 -0.0265544 0.0 
1.00911 -0.00332334 0.0 
0.976411 0.00104015 0.0 
0.943547 0.0272037 0.0 
0.00698403 -0.00144283 0.0 
0 0 0.0 
1.04126 0.00269484 0.0 
1.00607 -3.51304e-05 0.0 
0.833729 0.117219 0.0 
0.00733292 0.000602679 0.0 
1.00883 0.000444329 0.0 
1.00664 0.00013861 0.0 
0.942794 0.267623 0.0 
0.0841025 0.0207747 0.0 
1.00582 0.000118358 0.0 
2.41523e-05 -3.39893e-06 0.0 
0.3004 0.126343 0.0 
1.00818 0.000641305 0.0 
1.03379 0.23304 0.0 
0.765291 -0.0284868 0.0 
0.951311 0.0613969 0.0 
1.00012 0.000785899 0.0 
1.00586 0.000278275 0.0 
0.969213 -0.0815815 0.0 
1.06468 0.0551696 0.0 
1.00087 0.0626101 0.0 
0.977551 0.0158423 0.0 
0.999977 6.32682e-06 0.0 
0 0 0.0 
0.216231 0.0676016 0.0 
1.00628 -0.000749611 0.0 
0.998607 -0.00219651 0.0 
1.00596 0.000142765 0.0 
0.886976 -0.218422 0.0 
0.146925 -0.0236631 0.0 
1.00536 0 0.0 
1.08768 0.0539989 0.0 
0.0890073 0.00172375 0.0 
0.949927 0.0281892 0.0 
1.00721 -0.0013714 0.0 
0.816564 0.211912 0.0 
0.0462591 0.00207785 0.0 
0.458842 0.00188611 0.0 
-1.72333e-69 -8.90548e-70 0.0 
1.00616 -0.000400526 0.0 
0.251412 -0.0479289 0.0 
1.00003 0.000335224 0.0 
0.993351 0.00169423 0.0 
0.991605 0.00191462 0.0 
0.000548276 -8.74091e-06 0.0 
0.999698 0.0050532 0.0 
0.804471 0.20543 0.0 
0.787046 0.217378 0.0 
0.0576944 -0.0181779 0.0 
0.0198052 0.000430292 0.0 
0.000340678 2.39249e-05 0.0 
0.999119 0.00042178 0.0 
0.675118 -0.014314 0.0 
1.00487 -0.000210702 0.0 
1.00633 -0.000593553 0.0 
4.91479e-80 -5.96711e-81 0.0 
1.00273 0 0.0 
1.0099 0.0239426 0.0 
0 0 0.0 
0.305068 0.027577 0.0 
1.00584 -0.000190491 0.0 
1.00598 -0.00047619 0.0 
0.935549 -0.0037995 0.0 
0.0200352 0.000197853 0.0 
1.00239 0.00250847 0.0 
1.00722 -0.00103658 0.0 
0.940832 0.000726102 0.0 
1 0 0.0 
0.452792 -0.307306 0.0 
1.00013 -0.000259612 0.0 
1.00711 -0.000129904 0.0 
0.00875748 -0.00113188 0.0 
1.00013 -0.000182157 0.0 
1.0302 0.0129363 0.0 
0.0274607 0.00123293 0.0 
0.929046 0.0289148 0.0 
1.02101 -0.245462 0.0 
1.00593 -0.000252588 0.0 
1.00619 0.000467094 0.0 
0.846189 -0.0222785 0.0 
1.00555 -0.00025271 0.0 
1.00424 -0.000193273 0.0 
0.944498 0.00100093 0.0 
0.950614 0.0324453 0.0 
0.183961 -0.02023 0.0 
0.315481 0.0457029 0.0 
1.00993 -0.00179879 0.0 
0.00195154 -0.00037913 0.0 
0.169424 -0.0201551 0.0 
0.747211 -0.0128552 0.0 
0.493371 -0.0224054 0.0 
0.420496 -0.00713973 0.0 
1.0056 -0.000874939 0.0 
1.00519 0 0.0 
0 0 0.0 
1.00057 -0.000841292 0.0 
1.00661 0.000290516 0.0 
1.36903e-05 7.70768e-07 0.0 
0.984987 0.0445423 0.0 
0 0 0.0 
0.878144 -0.367544 0.0 
1.00686 0.000160689 0.0 
0.87571 0.163779 0.0 
0 0 0.0 
0.898655 -0.208392 0.0 
0 0 0.0 
0 0 0.0 
0 0 0.0 
0.00314969 -0.000578747 0.0 
0.0455688 -0.00344797 0.0 
1.00024 0.000970917 0.0 
0 0 0.0 
0.994646 -0.302467 0.0 
0.258694 -0.0280228 0.0 
1 0.000129218 0.0 
1.00104 -0.00133159 0.0 
0.993636 -0.00389422 0.0 
1.0082 -0.00217724 0.0 
7.29424e-12 7.60987e-13 0.0 
0 0 0.0 
1.00461 0.00653934 0.0 
1.0066 -0.000802467 0.0 
0.312297 -0.00242647 0.0 
0.979047 -0.0464641 0.0 
1.00645 -0.280683 0.0 
1.02178 0.217627 0.0 
0.0347531 -0.00123651 0.0 
9.74358e-99 -2.99352e-99 0.0 
1.00079 0 0.0 
1.01778 0.0169587 0.0 
0.0259095 0.000321844 0.0 
0.820138 -0.021428 0.0 
0.804906 -0.413605 0.0 
1.00624 -0.000503064 0.0 
0.892213 -0.319048 0.0 
1.00275 0.00234124 0.0 
1.00632 0.000118821 0.0 
0.31235 -0.112604 0.0 
0.961672 -0.0443832 0.0 
0.821749 -0.0216967 0.0 
0.9965 -0.00110024 0.0 
1.00104 0.0023918 0.0 
0.137252 0.0380574 0.0 
0 0 0.0 
6.5045e-05 7.42479e-08 0.0 
0 0 0.0 
1.00664 -0.000666046 0.0 
0.0186578 -0.00236148 0.0 
1.00464 -4.22944e-05 0.0 
1.00004 -0.000235198 0.0 
1.03619 -0.253259 0.0 
0.406067 -0.0977183 0.0 
1.0081 -0.00182099 0.0 
1.00562 0.000553215 0.0 
1.00033 0 0.0 
0.165266 0.00398794 0.0 
1.00617 6.35304e-05 0.0 
0.0483179 -0.00213108 0.0 
0.107817 -0.0152922 0.0 
1.005 -0.000348262 0.0 
0.0715653 -0.001977 0.0 
0.738908 -0.0366073 0.0 
0.0316698 0.001534 0.0 
1.02899 -0.0558994 0.0 
1.07097 0.153593 0.0 
1.0068 0.000174675 0.0 
1.00469 -0.000151149 0.0 
0.348048 -0.00494673 0.0 
1.0045 -0.000193166 0.0 
0.499753 -0.352523 0.0 
0 0 0.0 
1.00683 0.000198307 0.0 
1.00477 0.20322 0.0 
1.0065 -0.000101563 0.0 
1.00586 -0.000744056 0.0 
0.00910192 -0.000742545 0.0 
0.0335196 4.79666e-05 0.0 
0.0184225 0.00115236 0.0 
0.997594 0.00165453 0.0 
0.999937 -0.00134181 0.0 
1.00484 0 0.0 
1.00742 0.000321216 0.0 
0.229313 0.0229727 0.0 
0.00916718 0.000710805 0.0 
0.783985 0.342792 0.0 
1.00818 0.00481866 0.0 
0.713356 0.0218093 0.0 
1.00606 -0.000491669 0.0 
1 0 0.0 
1.00596 2.76724e-05 0.0 
1.00636 0.000140977 0.0 
0.00998678 9.63686e-05 0.0 
1.00004 0.000186821 0.0 
0.175603 -0.0248455 0.0 
1.03048 -0.0256253 0.0 
0.127688 -0.0173575 0.0 
0.265809 -0.0297862 0.0 
1.00735 -0.0015942 0.0 
0.0183918 0.000743415 0.0 
0.884582 -0.0195648 0.0 
1.00629 0.000942459 0.0 
0.0372157 -0.00630861 0.0 
4.06709e-218 9.21576e-219 0.0 
1.00508 -0.00016081 0.0 
0.999992 2.85454e-05 0.0 
1.00445 -0.000241416 0.0 
1.00448 -0.00550148 0.0 
1.02866 0.020455 0.0 
0.999796 -0.000815024 0.0 
1.00577 3.49597e-05 0.0 
0.0166231 0.000988572 0.0 
0.995937 0.0233269 0.0 
0 0 0.0 
0.706607 -0.0460099 0.0 
0.190825 0.0131545 0.0 
1.00704 0.00020117 0.0 
1.00587 3.34587e-05 0.0 
0.0227503 -0.00273206 0.0 
0.944786 -0.0335477 0.0 
1.12258 0.0812416 0.0 
1.00623 -0.000364314 0.0 
1.00001 -0.000170103 0.0 
0 0 0.0 
1.0015 0.00123556 0.0 
1.00668 -0.000531596 0.0 
1.00599 0 0.0 
1.00727 -0.000407278 0.0 
0.0121659 -0.0023317 0.0 
1.01114 -0.00385028 0.0 
1.01511 0.0208031 0.0 
1.00001 7.20996e-05 0.0 
1.00687 -0.00097893 0.0 
1.00057 0.00144248 0.0 
1.00528 0.00019879 0.0 
0.99988 0.00097557 0.0 
1.83692e-11 -2.00912e-12 0.0 
0.00641784 -0.00126895 0.0 
0.406668 0.00612564 0.0 
0.181819 0.0616872 0.0 
0.390424 0.138611 0.0 
1.00428 -0.000269374 0.0 
1.00814 0.00203148 0.0 
1.00679 0.00122392 0.0 
1.00692 -0.000669794 0.0 
1.00638 -0.000567908 0.0 
1.00648 -0.000644887 0.0 
1.00428 -0.000146146 0.0 
0.962195 -0.0563867 0.0 
0.230654 0.101532 0.0 
1.00596 -5.62325e-05 0.0 
1.00562 -0.000576448 0.0 
0.705598 0.0132614 0.0 
1.00595 -2.41288e-05 0.0 
0.337928 0.0551065 0.0 
1.00595 -3.3225e-05 0.0 
0.284016 -0.0410628 0.0 
0.984073 -0.124256 0.0 
1.00852 -0.00214711 0.0 
1.00705 0.000128904 0.0 
1.00758 5.88116e-05 0.0 
0.600003 0.0141641 0.0 
1.00601 -6.92671e-05 0.0 
0.999998 -0.000440313 0.0 
1.00446 -0.00133325 0.0 
1 0.000232305 0.0 
0.790486 0.00184374 0.0 
0.0644982 -0.00213148 0.0 
1.00698 0.000233603 0.0 
1.0052 0.00145724 0.0 
0.87804 0.0122781 0.0 
1.00625 -0.000803254 0.0 
0.802657 0.319077 0.0 
0.514267 0.26412 0.0 
0.261336 0.0231366 0.0 
0.0258326 0.000943691 0.0 
0 0 0.0 
0.501623 -0.0128215 0.0 
1.00759 0.000194078 0.0 
1.00571 -0.000258368 0.0 
1.00763 0.00880947 0.0 
0.902422 -0.00392229 0.0 
0.321427 -0.0107149 0.0 
0.963656 -0.282915 0.0 
0.812558 0.0141171 0.0 
0.692248 0.00102707 0.0 
1.00058 -0.000419691 0.0 
1.00657 -0.000224335 0.0 
0.158435 -0.0191434 0.0 
0.0457961 -0.000134069 0.0 
0.0354237 0.00243349 0.0 
1.00538 -0.000344294 0.0 
1.00579 -0.000362348 0.0 
0.0858797 0.00226798 0.0 
1.0074 0.0664263 0.0 
0.924643 -0.30587 0.0 
0.997331 -0.000782819 0.0 
0.999356 0.00071607 0.0 
1.00663 0.000652943 0.0 
0.983628 0.13936 0.0 
1.00002 -0.000184338 0.0 
1.00629 -0.000571657 0.0 
1.0057 -0.000731623 0.0 
1.00724 0.000225132 0.0 
0.620128 0.0268714 0.0 
0.0141252 -0.00172666 0.0 
1.00564 -0.000182204 0.0 
0.440883 -0.0161872 0.0 
1.00024 0.000356802 0.0 
1.0077 -0.000720113 0.0 
0.607934 0.030502 0.0 
1.00524 -0.000147183 0.0 
1.01014 0.00420636 0.0 
1.01811 0.00948132 0.0 
1.00835 0.00127715 0.0 
0.722957 -0.0308268 0.0 
0.63565 0.0144953 0.0 
1.00411 -0.000249322 0.0 
0.704859 0.0906252 0.0 
0.0709313 0.0099675 0.0 
1.00134 0.00283422 0.0 
1.00538 -0.000361101 0.0 
0.453462 0.207061 0.0 
0.886657 -0.0210617 0.0 
1.00766 -0.00120121 0.0 
1.00693 5.22903e-05 0.0 
1.00646 0.000100757 0.0 
1.00887 0.00191154 0.0 
1.00003 0.000300694 0.0 
0.00360425 -0.000721447 0.0 
1.00692 0.000197464 0.0 
1.00703 -0.000698493 0.0 
1.00629 -0.000330243 0.0 
1.00709 -0.203533 0.0 
1.00794 -0.00707396 0.0 
1.00541 -0.000172935 0.0 
0.99951 -0.000854296 0.0 
1.00645 -0.000605144 0.0 
0.0125623 0.000962107 0.0 
1.00435 0.00131767 0.0 
1.12518 0.0824821 0.0 
0.384136 -0.0108243 0.0 
1.00896 7.02145e-05 0.0 
1.00598 6.07572e-05 0.0 
1.04003 -0.00249305 0.0 
1.00661 -0.000153716 0.0 
1.00001 0.000102304 0.0 
0.000764615 2.70518e-05 0.0 
0 0 0.0 
-3.42316e-40 -1.90689e-41 0.0 
0.560726 -0.0356382 0.0 
0.0293333 0.000166573 0.0 
0.331937 -0.00584699 0.0 
1.00581 6.33782e-05 0.0 
0.834658 0.291739 0.0 
1.01319 0.0264164 0.0 
0.852486 0.0309328 0.0 
0.203871 0.0175242 0.0 
0.0133301 -0.00239746 0.0 
9.66623e-05 2.05807e-06 0.0 
1.73544e-243 1.18016e-243 0.0 
1.00395 0.000252972 0.0 
1.00269 0.151112 0.0 
1.00726 0.00010907 0.0 
0.0362901 -0.00719051 0.0 
0.480932 0.0670235 0.0 
1.00534 -0.00103813 0.0 
1.00051 -0.0056704 0.0 
0.970909 -0.0375662 0.0 
0.868653 -0.0163899 0.0 
0.141423 0.0277593 0.0 
0.0607435 -0.013184 0.0 
0.990617 -0.00208455 0.0 
0.030688 -0.0168356 0.0 
1.00132 0.00084946 0.0 
0.886124 0.0155032 0.0 
0.57201 0.0019407 0.0 
4.91601e-06 3.27787e-07 0.0 
0.447573 -0.0175731 0.0 
1.00454 -0.000538651 0.0 
0.00405427 -0.000633215 0.0 
1.00741 0.000231823 0.0 
1.0056 -0.0449384 0.0 
1.00705 4.59548e-05 0.0 
0.912715 -0.0160499 0.0 
1.00697 0.000610105 0.0 
1.00505 -0.00248965 0.0 
0.0145522 -0.00109038 0.0 
0.998891 0.00447491 0.0 
1.00619 0.000736167 0.0 
1.00502 -0.000740841 0.0 
1.00174 -0.000506555 0.0 
1.01963 -0.0937765 0.0 
1.00492 -0.000781626 0.0 
0.0152622 0.000995268 0.0 
1.006 -5.40917e-05 0.0 
1.00469 -0.0028466 0.0 
1.00763 -0.00194335 0.0 
1.03848 0.0238988 0.0 
1.00512 -0.000808766 0.0 
0.0333951 0.00487313 0.0 
0.190252 0.000270535 0.0 
1.00703 0.000317105 0.0 
0.997471 0.0123364 0.0 
0.0489698 0.0100959 0.0 
0.395653 -0.00960878 0.0 
0.301854 0.066073 0.0 
1.00395 -0.00289009 0.0 
1 -0.000954838 0.0 
2.14038e-267 1.2446e-268 0.0 
1.00638 0.000176723 0.0 
1.00708 0.000295158 0.0 
0.473018 -0.022691 0.0 
0.999855 0.000379281 0.0 
1.00618 -0.000590824 0.0 
0.955349 0.028148 0.0 
0.904487 -0.0944644 0.0 
1.0074 -0.000728703 0.0 
1.00623 0.00112037 0.0 
0.598725 -0.000334047 0.0 
1.0064 -9.86302e-05 0.0 
0.951792 0.0225683 0.0 
0.0654532 -0.000297963 0.0 
0.404199 0.0315704 0.0 
0.999846 0.00317417 0.0 
0.273196 0.00530602 0.0 
1.00865 0.00080602 0.0 
0.862779 0.0313809 0.0 
1.00001 -0.000261109 0.0 
1.00007 -0.000220111 0.0 
0.0313203 -0.0163573 0.0 
0.970184 -0.066782 0.0 
1.00754 0.000254463 0.0 
1.00877 0.000192553 0.0 
1.00725 -0.00185687 0.0 
1.05994 0.0947369 0.0 
0.444031 0.174282 0.0 
1.00609 0.000253702 0.0 
1.00617 0.000155831 0.0 
1.00709 0.000137177 0.0 
0.401893 0.00500464 0.0 
0.00330082 -0.000708417 0.0 
0.431322 0.00772808 0.0 
0 0 0.0 
1.00832 0.000566284 0.0 
1.00696 -0.000534601 0.0 
0.566435 -0.0174399 0.0 
1.00582 -0.000563726 0.0 
1.00595 -0.000108093 0.0 
1.00547 -0.000888801 0.0 
1.00547 -0.000471039 0.0 
1.00676 -0.00081624 0.0 
0.911008 -0.0562905 0.0 
0 0 0.0 
1.00594 0.000675767 0.0 
1.00558 -0.000470203 0.0 
0.388503 0.00545937 0.0 
1.005 -0.000107275 0.0 
1.0017 -0.00832587 0.0 
1.00554 0.000258705 0.0 
0.00760076 -0.000578803 0.0 
1.00482 -0.000381426 0.0 
1.00134 0.00149046 0.0 
0.893135 0.0140625 0.0 
5.23092e-05 -5.45982e-06 0.0 
1.00008 -0.000693759 0.0 
0.020594 0.000679758 0.0 
1.00492 -0.000138825 0.0 
0.927379 -0.164293 0.0 
1.00128 -0.00669941 0.0 
0.823784 0.0050409 0.0 
0.539809 0.0920007 0.0 
0.948559 -0.0511121 0.0 
1.73785e-07 8.74524e-09 0.0 
0.417258 0.00195575 0.0 
-9.32246e-170 -1.20675e-169 0.0 
1.007 -0.000313443 0.0 
0.433105 -0.00102579 0.0 
1.00799 -0.00013564 0.0 
0.273422 0.0823252 0.0 
0.994249 -0.00126288 0.0 
1.00605 -0.000298223 0.0 
1.00909 0.00380232 0.0 
1.00415 -0.0025328 0.0 
1.00731 0.0042471 0.0 
1.00084 0.0168621 0.0 
1.00605 -1.65485e-05 0.0 
1.00495 -0.000557269 0.0 
1.00675 -0.000635927 0.0 
0.948233 0.0207678 0.0 
1.0105 -0.000444936 0.0 
1.00657 -0.000723249 0.0 
0.333758 -0.00156632 0.0 
0.353792 -0.00176132 0.0 
1.00608 7.16021e-05 0.0 
0.0594912 0.0116837 0.0 
1.0069 -2.6153e-05 0.0 
0.787921 0.141137 0.0 
1.00355 0.000853781 0.0 
1.00592 -0.000647184 0.0 
1.00638 5.40891e-05 0.0 
1 0.00017184 0.0 
1.0073 6.71656e-05 0.0 
0.0631762 -0.0203337 0.0 
0.346446 0.00100325 0.0 
1.0078 -0.000339558 0.0 
0.790401 -0.00149388 0.0 
0.979006 -0.00161715 0.0 
0.999832 -0.000287355 0.0 
0.997669 0.00434486 0.0 
0.0194108 0.00105829 0.0 
1.00001 -0.000133894 0.0 
1.00483 -0.00154325 0.0 
0.68214 -0.0020355 0.0 
0.578602 0.182802 0.0 
0.231205 -0.0176069 0.0 
1.00322 0.0022092 0.0 
0.698161 0.00429208 0.0 
0 0 0.0 
0.0199131 0.000126761 0.0 
0.835453 -0.0515016 0.0 
1 -0.000255546 0.0 
0.322855 -0.234608 0.0 
0.389865 0.0863858 0.0 
0.843684 6.06536e-05 0.0 
1.00683 -1.10759e-05 0.0 
1.00229 0.0097916 0.0 
0.717554 -0.00181676 0.0 
0.976193 -0.0341757 0.0 
0.518679 -0.0464125 0.0 
1.00829 -0.000958532 0.0 
0.0444516 -0.00475712 0.0 
0.11779 -0.00673242 0.0 
0 0 0.0 
0.171875 0.00518167 0.0 
0 0 0.0 
0.236083 0.00426853 0.0 
1.00612 0.000684885 0.0 
0.926942 0.16936 0.0 
1.00656 0.000658183 0.0 
1.00674 0.000207584 0.0 
0.885288 -0.0551128 0.0 
0.0151732 -0.0280381 0.0 
1.0059 0.000109643 0.0 
0.999921 -0.000229206 0.0 
1.01216 -0.00119942 0.0 
0.0121459 0.000112304 0.0 
1.01104 0.0918098 0.0 
0.914677 -0.373145 0.0 
1.00508 -0.000164141 0.0 
1.00607 -0.000755421 0.0 
0.231402 -0.0505008 0.0 
1.11686 0.0424058 0.0 
1.00461 -0.000698488 0.0 
1.00701 0.000574445 0.0 
1.00007 0.00120152 0.0 
0.00333421 -0.000249826 0.0 
1.00634 -0.00054316 0.0 
1.00083 0.000468085 0.0 
1.0049 -0.000163721 0.0 
0.999761 0.00185028 0.0 
0.0290886 0.000686798 0.0 
1.00563 3.53764e-05 0.0 
0.413552 -0.123267 0.0 
1.00559 0 0.0 
0.0111244 0.000721686 0.0 
1.00459 -0.000553526 0.0 
0.0809234 0.0549671 0.0 
1.00639 0.000750389 0.0 
1.00646 -0.000609784 0.0 
0.0312053 0.00634384 0.0 
1.00883 0.000159896 0.0 
0.69087 -0.0143811 0.0 
1.05409 0.075469 0.0 
1.00761 -0.00508225 0.0 
1.48759e-05 1.67842e-06 0.0 
1.00682 -0.000779526 0.0 
0.0129396 -0.000358571 0.0 
0.0455109 -0.00687389 0.0 
0.184653 0.0372 0.0 
0.936448 0.0214235 0.0 
1.01145 -0.0134098 0.0 
0.944773 -0.27987 0.0 
1.00624 0.000215157 0.0 
1.0065 -0.000654027 0.0 
1.00333 0 0.0 
1.00611 5.76812e-05 0.0 
0.914486 0.0303194 0.0 
1.00038 0.00621941 0.0 
0.656501 0.0110174 0.0 
0.612264 -0.431362 0.0 
1.00604 -0.00038882 0.0 
0.999488 -0.013087 0.0 
0.218437 -0.060778 0.0 
1.00124 -0.00226671 0.0 
0.325743 0.0380877 0.0 
0.0469471 -0.00804866 0.0 
1.00621 -0.000543811 0.0 
0 0 0.0 
1.00715 -0.000503041 0.0 
1.00381 -0.00173787 0.0 
0.974236 -0.0229308 0.0 
1.006 -9.91179e-05 0.0 
0.0151559 0.00311572 0.0 
1.00074 0.00150687 0.0 
0.70187 -0.00112908 0.0 
1.00097 -0.000853741 0.0 
1.00012 -0.000687823 0.0 
0.939803 -0.283607 0.0 
0.999478 0.000170912 0.0 
0 0 0.0 
0.157385 0.00876433 0.0 
1.00659 -0.000656692 0.0 
1.00464 -0.00348602 0.0 
1.00358 0.00444335 0.0 
0.999923 9.08453e-06 0.0 
4.174e-79 1.72389e-80 0.0 
1.00029 0.000673256 0.0 
0.192258 0.0666122 0.0 
1.00996 -0.00355593 0.0 
0 0 0.0 
1.00599 1.03509e-05 0.0 
1.11437 0.0899139 0.0 
0.831029 0.333666 0.0 
1.00783 -0.00224107 0.0 
0.999966 0.000828891 0.0 
0.435099 0.0129758 0.0 
0.0115014 0.000219234 0.0 
0.23798 -0.271371 0.0 
0.556827 -0.0067269 0.0 
0 0 0.0 