<VTKFile type="UnstructuredGrid" version="0.1" byte_order="LittleEndian">
  <UnstructuredGrid>
    <Piece NumberOfPoints="13815" NumberOfCells="27441">
      <Points>
        <DataArray type = "Float64" NumberOfComponents="3" format="ascii">
0 0 0.0 
14 0 0.0 
14 8 0.0 
0 8 0.0 
0.253906 4.90996 0.0 
4.03239 3.93948 0.0 
5.29739 3.98077 0.0 
4.27056 4.0439 0.0 
0.382322 2.91093 0.0 
7.30247 3.17806 0.0 
4.06296 4.06674 0.0 
4.20732 3.96254 0.0 
4.01411 4.01149 0.0 
4.07057 3.9639 0.0 
4.53824 7.43039 0.0 
4.01787 3.95968 0.0 
3.98741 4.04054 0.0 
3.98768 4.02653 0.0 
4.55273 3.99868 0.0 
5.11273 4.07452 0.0 
4.1419 4.04331 0.0 
4.01877 4.0223 0.0 
4.06502 4.00809 0.0 
4.42351 4.0141 0.0 
4.67405 4.10923 0.0 
4.14364 4.01377 0.0 
4.80484 4.03022 0.0 
4.61584 4.00791 0.0 
4.41203 4.0358 0.0 
12.1265 0 0.0 
4.39499 4.01252 0.0 
6.94991 5.0257 0.0 
4.46852 4.03685 0.0 
4.54638 4.00884 0.0 
4.13489 4.05432 0.0 
1.36116 1.78512 0.0 
4.12495 3.79462 0.0 
3.04298 2.00142 0.0 
14 0.787088 0.0 
4.48435 4.03561 0.0 
0 3.36284 0.0 
4.93697 3.93496 0.0 
4.26833 4.04352 0.0 
4.02877 4.02049 0.0 
4.21939 3.9751 0.0 
5.24661 4.02884 0.0 
4.0273 4.01367 0.0 
4.20537 3.96901 0.0 
4.06959 3.97574 0.0 
4.62342 4.01415 0.0 
4.31306 4.02997 0.0 
5.17517 4.1161 0.0 
4.78114 3.8923 0.0 
3.97586 4.01385 0.0 
5.96658 3.87987 0.0 
4.12607 4.05951 0.0 
4.19917 3.9675 0.0 
4.2483 4.03635 0.0 
4.0955 3.94899 0.0 
4.03444 4.04627 0.0 
4.00163 4.02959 0.0 
4.02005 3.99731 0.0 
5.23503 8 0.0 
4.30375 3.97965 0.0 
4.09706 3.06577 0.0 
4.23028 3.94229 0.0 
5.99717 3.78565 0.0 
4.47523 4.04493 0.0 
5.35217 4.0931 0.0 
4.47132 4.03438 0.0 
4.09355 3.9831 0.0 
4.01152 3.88232 0.0 
4.43047 3.97338 0.0 
13.7283 2.46074 0.0 
4.05744 4.03192 0.0 
13.4653 0.705634 0.0 
3.96367 4.04432 0.0 
8.79181 7.69132 0.0 
4.04672 4.0202 0.0 
4.94501 3.90266 0.0 
4.49535 3.99678 0.0 
4.54772 3.97659 0.0 
3.96947 4.02134 0.0 
4.12316 4.04118 0.0 
7.16763 4.21956 0.0 
3.96297 3.96024 0.0 
4.21254 3.97074 0.0 
4.15932 4.03394 0.0 
4.08252 4.0362 0.0 
4.11692 3.94964 0.0 
10.358 3.36045 0.0 
3.95785 3.95439 0.0 
4.06521 4.00008 0.0 
4.02972 4.04518 0.0 
3.97414 4.04859 0.0 
4.0005 3.94996 0.0 
3.97141 4.03046 0.0 
12.282 6.14857 0.0 
3.97561 4.03322 0.0 
3.97816 4.02179 0.0 
4.04633 4.03304 0.0 
3.96767 4.02507 0.0 
4.53971 3.97638 0.0 
4.67208 4.01243 0.0 
3.97018 4.04275 0.0 
4.54225 3.97864 0.0 
6.6627 2.29498 0.0 
0 1.32468 0.0 
4.01369 3.97538 0.0 
4.54991 3.98013 0.0 
4.51107 4.01354 0.0 
5.18351 3.78085 0.0 
4.30035 3.97509 0.0 
4.05761 3.9979 0.0 
4.73521 7.52615 0.0 
14 7.5096 0.0 
4.09504 3.9832 0.0 
4.5384 4.00606 0.0 
3.99913 4.0713 0.0 
4.21259 3.97823 0.0 
4.03227 4.0244 0.0 
4.06171 3.97809 0.0 
5.0818 4.06419 0.0 
4.11581 4.05249 0.0 
3.8684 3.14636 0.0 
7.62634 3.98886 0.0 
0.21871 6.38477 0.0 
4.52006 3.97969 0.0 
5.28298 3.91535 0.0 
4.02022 3.98429 0.0 
4.10117 3.96057 0.0 
5.1435 4.10273 0.0 
13.0308 3.29431 0.0 
4.42851 4.03701 0.0 
4.00175 4.00676 0.0 
6.37297 2.73989 0.0 
6.50541 6.65271 0.0 
4.0914 3.96216 0.0 
3.63158 3.86572 0.0 
5.20281 3.96498 0.0 
3.99215 4.13453 0.0 
0 1.05243 0.0 
4.23206 4.07447 0.0 
12.6474 3.41509 0.0 
4.05312 3.99197 0.0 
13.7435 8 0.0 
4.11702 4.02719 0.0 
6.67367 0 0.0 
4.01115 4.24736 0.0 
6.82471 4.26136 0.0 
2.0145 6.16839 0.0 
4.55084 3.9996 0.0 
4.06758 3.97376 0.0 
4.44677 4.31444 0.0 
5.25615 4.08216 0.0 
13.6419 7.13942 0.0 
4.33078 4.04078 0.0 
4.48323 4.01898 0.0 
6.22735 7.50315 0.0 
4.01487 4.01626 0.0 
4.46985 4.01987 0.0 
4.04562 4.3386 0.0 
4.00932 4.01975 0.0 
8.95603 7.57132 0.0 
4.19305 3.98718 0.0 
4.00011 4.0245 0.0 
3.98122 4.01031 0.0 
11.5703 4.18823 0.0 
4.38183 4.01294 0.0 
4.17858 4.03055 0.0 
5.3045 4.35295 0.0 
4.18918 4.0885 0.0 
11.3934 4.07618 0.0 
4.00485 3.95979 0.0 
4.50642 4.02325 0.0 
4.54778 4.01674 0.0 
4.08927 3.9549 0.0 
4.22147 4.0961 0.0 
4.05635 4.04137 0.0 
4.23244 4.06965 0.0 
4.15829 3.98752 0.0 
4.09428 3.96323 0.0 
4.48988 4.03014 0.0 
3.92398 4.08262 0.0 
2.02311 6.41626 0.0 
4.18332 3.96996 0.0 
3.9757 3.93339 0.0 
6.70909 6.94059 0.0 
4.05173 3.98534 0.0 
12.0372 1.49526 0.0 
4.52568 3.97731 0.0 
4.4324 4.47856 0.0 
10.4619 3.53679 0.0 
4.39789 4.02787 0.0 
5.11537 3.91723 0.0 
4.18828 4.05402 0.0 
4.54934 4.03681 0.0 
4.51848 4.01021 0.0 
6.38052 3.13775 0.0 
5.9291 5.15993 0.0 
4.08077 4.03602 0.0 
3.96376 4.05355 0.0 
9.4176 1.73395 0.0 
4.18831 3.97962 0.0 
5.24537 4.1668 0.0 
4.20501 3.97964 0.0 
4.9393 3.97113 0.0 
4.54775 3.9973 0.0 
12.8262 0.365959 0.0 
8.35832 2.9685 0.0 
13.4699 7.45697 0.0 
4.32988 3.99242 0.0 
4.01229 3.97705 0.0 
4.06076 3.97364 0.0 
4.00094 4.00708 0.0 
4.15864 3.96029 0.0 
4.09808 4.03387 0.0 
2.3455 6.64237 0.0 
4.00577 3.97873 0.0 
4.46979 4.03982 0.0 
6.95962 7.64891 0.0 
5.23564 4.10282 0.0 
4.36979 3.99438 0.0 
7.62224 2.88267 0.0 
7.22419 0.703495 0.0 
4.46345 4.02132 0.0 
4.22308 4.09104 0.0 
4.08949 4.04954 0.0 
4.04116 3.98624 0.0 
4.00498 4.00961 0.0 
4.67118 4.01827 0.0 
5.8599 3.0813 0.0 
4.36935 4.07622 0.0 
4.48124 4.00734 0.0 
4.05958 4.04239 0.0 
4.11576 4.04999 0.0 
4.17362 4.05636 0.0 
4.6103 3.91602 0.0 
4.05417 4.11041 0.0 
4.55049 4.00816 0.0 
4.13336 4.04339 0.0 
4.11575 4.03408 0.0 
1.97176 2.13711 0.0 
4.20274 4.07949 0.0 
4.57278 4.01593 0.0 
12.5015 1.14918 0.0 
4.09797 3.95385 0.0 
4.23052 4.09368 0.0 
4.20868 4.08388 0.0 
5.29794 4.0581 0.0 
4.1403 4.03691 0.0 
4.01703 7.79668 0.0 
4.32637 4.10272 0.0 
4.31457 3.99181 0.0 
7.97633 2.05223 0.0 
4.63116 3.8826 0.0 
5.45654 5.22816 0.0 
3.93138 3.94847 0.0 
4.53745 3.98764 0.0 
4.94266 3.9832 0.0 
8.82235 8 0.0 
4.43713 3.99664 0.0 
9.44757 4.14197 0.0 
4.2355 4.09935 0.0 
4.40351 3.99288 0.0 
10.4908 7.41058 0.0 
4.37617 4.03366 0.0 
4.52131 4.01097 0.0 
4.06329 4.04721 0.0 
3.8771 3.99789 0.0 
4.18805 3.96826 0.0 
3.27977 4.42352 0.0 
4.61081 4.96966 0.0 
11.3713 7.83957 0.0 
0.417479 6.31883 0.0 
4.69269 3.91129 0.0 
4.01577 4.11875 0.0 
4.66428 4.02953 0.0 
4.0846 3.98475 0.0 
4.51856 3.99752 0.0 
3.99153 4.04254 0.0 
4.38801 4.01429 0.0 
4.57553 4.01147 0.0 
3.98958 4.04705 0.0 
3.99093 4.05263 0.0 
8.40952 2.0809 0.0 
3.97296 4.00674 0.0 
11.3714 7.19716 0.0 
9.192 5.81999 0.0 
4.25925 3.99045 0.0 
3.53429 0 0.0 
4.67134 3.89044 0.0 
4.08953 4.02996 0.0 
11.016 2.69137 0.0 
2.30378 3.03595 0.0 
4.0951 3.98417 0.0 
4.48087 4.01695 0.0 
7.40997 8 0.0 
4.02321 3.97317 0.0 
2.86414 6.59491 0.0 
4.06421 4.05587 0.0 
4.62514 3.98284 0.0 
4.05731 4.02647 0.0 
4.42272 3.99497 0.0 
4.1614 4.02737 0.0 
6.78993 2.13526 0.0 
13.0673 7.81526 0.0 
0.846754 0.565038 0.0 
4.05907 4.0108 0.0 
4.72714 4.01388 0.0 
5.22012 4.00045 0.0 
1.2142 8 0.0 
7.59973 7.22298 0.0 
12.6277 1.80732 0.0 
14 4.58149 0.0 
5.85073 0.410811 0.0 
13.0902 7.46595 0.0 
4.37411 4.03896 0.0 
4.02912 3.96643 0.0 
3.9878 3.95947 0.0 
4.27031 4.043 0.0 
4.48079 4.01778 0.0 
4.51303 3.98607 0.0 
4.53765 4.77508 0.0 
3.96066 4.00697 0.0 
3.98924 4.05791 0.0 
4.96395 4.01931 0.0 
13.1661 5.68046 0.0 
13.7895 0 0.0 
4.10795 4.02897 0.0 
4.32046 1.78584 0.0 
11.4357 2.10385 0.0 
4.58433 4.49877 0.0 
2.61514 0.506135 0.0 
4.00791 4.0033 0.0 
4.0088 3.9805 0.0 
9.75515 2.36072 0.0 
4.88597 3.98102 0.0 
1.03284 2.15008 0.0 
4.02947 3.97325 0.0 
4.224 3.99031 0.0 
4.6454 3.91884 0.0 
4.01129 4.00596 0.0 
3.59964 3.72298 0.0 
4.66007 4.04623 0.0 
4.90839 4.00372 0.0 
4.39628 4.03952 0.0 
4.01755 3.97046 0.0 
4.05391 4.05233 0.0 
1.3137 0 0.0 
4.3525 4.00883 0.0 
3.99474 4.00051 0.0 
4.27599 3.98844 0.0 
6.42466 4.18028 0.0 
4.19231 4.05358 0.0 
4.05373 4.0206 0.0 
4.0593 4.0207 0.0 
0.762117 5.13098 0.0 
4.52442 4.04136 0.0 
4.11868 3.97589 0.0 
4.15516 3.94365 0.0 
4.21078 3.98014 0.0 
4.01683 3.96357 0.0 
8.32777 8 0.0 
7.58471 5.24477 0.0 
2.15974 5.93568 0.0 
4.53497 4.00658 0.0 
4.0422 3.9916 0.0 
7.34664 4.75146 0.0 
4.00437 3.9841 0.0 
4.00964 3.98933 0.0 
4.0134 3.97877 0.0 
3.03193 6.72582 0.0 
4.00239 3.93806 0.0 
4.01079 3.9893 0.0 
4.00988 3.97037 0.0 
4.36156 4.08272 0.0 
3.99732 3.99732 0.0 
4.53944 3.99859 0.0 
4.06934 4.09006 0.0 
2.5098 3.59854 0.0 
4.21036 4.03335 0.0 
4.09468 4.03942 0.0 
4.21732 4.03352 0.0 
4.53888 4.02662 0.0 
11.5792 7.84461 0.0 
0.551344 1.2516 0.0 
4.02575 3.96118 0.0 
4.51177 3.93076 0.0 
4.14091 4.04918 0.0 
4.30664 4.03941 0.0 
6.49697 5.21809 0.0 
4.26639 4.04321 0.0 
4.99234 3.94964 0.0 
2.12714 0 0.0 
5.36126 4.11493 0.0 
11.8351 6.74811 0.0 
13.4868 6.98365 0.0 
4.1127 3.96242 0.0 
4.55145 4.02801 0.0 
4.15116 3.93854 0.0 
4.13176 4.07898 0.0 
10.2186 2.28825 0.0 
4.35885 3.98939 0.0 
4.9711 3.97451 0.0 
4.19863 4.03399 0.0 
0 5.97088 0.0 
4.00279 3.99128 0.0 
4.05385 4.00986 0.0 
4.85809 4.01513 0.0 
4.98773 3.93159 0.0 
3.10914 5.59568 0.0 
6.32476 7.00417 0.0 
12.5996 5.63737 0.0 
4.64409 4.00438 0.0 
3.9826 4.09406 0.0 
3.31161 1.01031 0.0 
6.52043 4.79237 0.0 
4.16768 3.98744 0.0 
4.52685 4.01392 0.0 
4.20862 3.97868 0.0 
11.5808 3.97719 0.0 
11.1865 7.25481 0.0 
1.04229 0 0.0 
3.83189 4.3322 0.0 
3.96806 4.01296 0.0 
11.0968 5.75296 0.0 
4.20997 0.181458 0.0 
6.26265 7.14539 0.0 
4.16248 3.98638 0.0 
4.50879 4.03552 0.0 
4.00773 4.00001 0.0 
4.5467 4.03146 0.0 
4.05956 4.07804 0.0 
2.92109 4.80681 0.0 
4.70958 7.08222 0.0 
7.20657 5.05296 0.0 
3.05391 4.40989 0.0 
4.76322 3.98314 0.0 
4.11252 3.99718 0.0 
4.77956 4.48627 0.0 
13.0519 3.93435 0.0 
4.51826 3.98725 0.0 
0.198711 3.79297 0.0 
4.72583 0.194576 0.0 
3.88467 3.5334 0.0 
4.53584 4.04123 0.0 
4.53319 4.01511 0.0 
5.30927 0.171783 0.0 
3.58114 4.19576 0.0 
13.8261 5.946 0.0 
9.9973 4.76046 0.0 
4.73668 3.89169 0.0 
4.36587 4.03484 0.0 
3.96886 4.00175 0.0 
4.64006 3.99672 0.0 
4.36261 4.03666 0.0 
10.4928 5.29986 0.0 
4.00414 3.99309 0.0 
4.05103 4.00091 0.0 
4.82507 4.1106 0.0 
1.48233 7.50025 0.0 
4.35999 3.99334 0.0 
0.347962 1.57688 0.0 
4.64802 3.99025 0.0 
5.06703 4.08092 0.0 
4.19252 4.05554 0.0 
9.80623 3.08771 0.0 
7.78364 0 0.0 
6.32437 6.34013 0.0 
7.7278 7.63087 0.0 
5.62592 4.80931 0.0 
4.7383 3.87602 0.0 
12.529 6.19703 0.0 
4.00813 4.01182 0.0 
1.64832 6.43608 0.0 
[...]
<PointData>
  <DataArray type = "Float64" Name="Vitesse" NumberOfComponents="3" format="ascii">
1 0 0.0 
1.00036 0 0.0 
0.999822 0 0.0 
1 0 0.0 
0.999989 0.000204233 0.0 
1.03623 -0.189265 0.0 
0.590334 0.00524337 0.0 
0.0478821 -0.00345494 0.0 
0.999969 -0.000130812 0.0 
1.00632 0.00260272 0.0 
1.03314 0.255285 0.0 
0.575987 -0.000607596 0.0 
0 0 0.0 
0.874885 -0.0936079 0.0 
1.00502 0.000624615 0.0 
1.01017 -0.262952 0.0 
0.775134 0.197649 0.0 
0.683443 0.18945 0.0 
0.0153582 2.19688e-06 0.0 
0.77279 -0.0193292 0.0 
0.0513698 0.00715694 0.0 
0.430139 0.205274 0.0 
0 0 0.0 
1e-307 0 0.0 
0.960789 -0.0457968 0.0 
0 0 0.0 
0.374348 -0.0174397 0.0 
0.118743 -0.0017518 0.0 
0.0909954 -0.0101613 0.0 
1.00085 0 0.0 
1e-307 1e-307 0.0 
1.00619 -0.00620717 0.0 
0.161553 -0.0182372 0.0 
0.018565 -0.00403039 0.0 
0.54107 0.0601725 0.0 
1.00012 -0.00081647 0.0 
1.03548 -0.0594422 0.0 
1.00148 -0.00321156 0.0 
1.00033 0.000109664 0.0 
0.162641 -0.0188527 0.0 
1 0 0.0 
0.806174 0.0190877 0.0 
0.036824 -0.00329242 0.0 
8.17135e-227 1.69703e-227 0.0 
0.297029 0.00529323 0.0 
0.558864 -0.00775529 0.0 
0 0 0.0 
0.433867 0.0033369 0.0 
0.445846 -0.0289977 0.0 
0.133201 -0.00992475 0.0 
0 0 0.0 
0.946257 -0.0168698 0.0 
0.98956 0.0217459 0.0 
0.666114 0.0457622 0.0 
0.953242 0.00380698 0.0 
0.76394 0.105077 0.0 
0.471427 0.00217529 0.0 
0 0 0.0 
1.03241 -0.0966356 0.0 
0.92634 0.316716 0.0 
0.720981 0.309157 0.0 
0 0 0.0 
1.00528 0 0.0 
0.222689 0.0061484 0.0 
1.00832 -0.0120671 0.0 
0.899767 -0.0161818 0.0 
1.00568 0.00329985 0.0 
0.267953 -0.0262293 0.0 
0.866292 -0.0139985 0.0 
0.136887 -0.0161588 0.0 
0.0935053 0.00216025 0.0 
0.99769 -0.115051 0.0 
0.354772 0.00837439 0.0 
1.00013 0.000291853 0.0 
0.154883 0.0352408 0.0 
1.00042 0.000134236 0.0 
0.810257 0.109904 0.0 
1.00186 -0.000373959 0.0 
0 0 0.0 
0.949781 0.0169984 0.0 
0.0252849 0.00217154 0.0 
0.348986 0.0152604 0.0 
0.72624 0.0677784 0.0 
0.0311129 0.00424382 0.0 
1.00489 -0.0098933 0.0 
0.859961 -0.136991 0.0 
0.392664 0.00440324 0.0 
0 0 0.0 
0.0829624 0.0176389 0.0 
0.981363 -0.0676934 0.0 
0.999298 0.00300072 0.0 
0.874592 -0.124452 0.0 
0 0 0.0 
0.91411 0.324431 0.0 
0.812466 0.145475 0.0 
0.948154 -0.218486 0.0 
0.751127 0.107368 0.0 
0.9997 -9.12133e-05 0.0 
0.75176 0.131665 0.0 
0.68721 0.105234 0.0 
0.433875 0.133585 0.0 
0.744715 0.0772545 0.0 
0.347557 0.0126758 0.0 
0.189398 -0.00474176 0.0 
0.796833 0.127218 0.0 
0.316789 0.0121779 0.0 
1.00642 0.00122333 0.0 
1 0 0.0 
0.950654 -0.328782 0.0 
0.300165 0.0142753 0.0 
0.0123073 -0.00198508 0.0 
1.01047 0.00753022 0.0 
0.303866 0.00709312 0.0 
0 0 0.0 
1.00515 0.000429018 0.0 
0.999817 -2.14381e-06 0.0 
0.0903488 -0.000352315 0.0 
0.00195417 -0.000385538 0.0 
0.893796 0.20127 0.0 
0.229072 0.00448694 0.0 
0.16739 0.0613714 0.0 
0.380312 -0.0265585 0.0 
0.706502 -0.0187817 0.0 
0.585014 0.0843055 0.0 
1.00406 -0.0135326 0.0 
0.843242 -0.00264309 0.0 
1.00001 0.000165765 0.0 
0.290044 0.00811712 0.0 
0.887044 0.00981506 0.0 
0.474374 -0.121294 0.0 
0.826503 -0.0549773 0.0 
0.905269 -0.0179328 0.0 
0.999936 0.000421065 0.0 
0.123134 -0.0138091 0.0 
0.0686781 0.0860457 0.0 
1.00721 0.001505 0.0 
1.00552 -0.00156158 0.0 
0.824102 -0.0625327 0.0 
0.972125 -0.0108696 0.0 
0.640903 0.0100144 0.0 
0.96155 0.130093 0.0 
1 0 0.0 
0.807048 0.0266176 0.0 
0.999853 0.000509744 0.0 
0 0 0.0 
0.999824 0 0.0 
0 0 0.0 
1.00493 0 0.0 
1.0072 0.0817097 0.0 
1.00788 -0.00779792 0.0 
1.00079 0.00213534 0.0 
0.000569317 3.51582e-05 0.0 
0.54329 -0.0421856 0.0 
1.05849 0.00273505 0.0 
0.818892 -0.0161141 0.0 
0.999813 -6.15974e-06 0.0 
0.0627859 -0.00591479 0.0 
0.0175481 -0.00271912 0.0 
1.00521 -0.000378353 0.0 
0.122335 0.0542517 0.0 
0.00998719 -0.00116373 0.0 
1.01945 0.0584625 0.0 
0.530443 0.305494 0.0 
1.00164 -0.00049953 0.0 
0.034946 0.00136035 0.0 
0.661396 0.310699 0.0 
0.60567 0.0337107 0.0 
0.999197 0.000516377 0.0 
0 0 0.0 
0 0 0.0 
1.01247 -0.0104641 0.0 
1.07281 0.089985 0.0 
0.999068 0.000659077 0.0 
0.950522 -0.262546 0.0 
0.0682429 -0.00995432 0.0 
0.0609405 -0.0121647 0.0 
0.979956 -0.0920241 0.0 
1.08852 0.0649274 0.0 
0.691554 0.188513 0.0 
0.700035 0.0182576 0.0 
0.0029017 2.65042e-05 0.0 
0.783355 -0.0538568 0.0 
0.1117 -0.0142182 0.0 
0.898377 0.0760944 0.0 
1.00093 0.00186852 0.0 
0.423634 0.00248073 0.0 
0.927129 -0.14686 0.0 
1.00498 -0.00129048 0.0 
0.0544069 -0.00268674 0.0 
1.00063 0.000594157 0.0 
0.327005 0.00969044 0.0 
1.03898 0.00945366 0.0 
0.998705 0.0026497 0.0 
0 0 0.0 
0.889186 0.0124115 0.0 
0.341678 0.0137777 0.0 
0.234545 -0.0303154 0.0 
0.00317393 -0.000273587 0.0 
1.00797 0.00189305 0.0 
1.00924 -0.00426526 0.0 
0.0924531 0.0219187 0.0 
0.833471 0.119817 0.0 
1.00265 0.00193132 0.0 
0.194513 0.00492709 0.0 
1.00448 -0.0137869 0.0 
0.197273 0.00432943 0.0 
0.548892 0.0147939 0.0 
0.0355418 0.00134083 0.0 
1.00058 0.000102432 0.0 
1.00496 0.00388457 0.0 
0.999819 -8.44013e-06 0.0 
0.021498 0.000478636 0.0 
0.930757 -0.338918 0.0 
0.59187 -0.0555938 0.0 
0.125675 0.139068 0.0 
0.687849 -0.0139907 0.0 
0 0 0.0 
1.00144 0.00190467 0.0 
0.895792 -0.384963 0.0 
0.197778 -0.0211761 0.0 
1.00438 -0.00044142 0.0 
0.903958 -0.0167646 0.0 
0.00980561 0.00109902 0.0 
1.00599 0.00261985 0.0 
1.00483 0.000412516 0.0 
0.0131836 -0.00206142 0.0 
1.05437 0.0585243 0.0 
0.672741 0.133269 0.0 
0.0396894 -0.00178585 0.0 
0.0700108 0.0587469 0.0 
0.201678 -0.0110657 0.0 
1.00887 0.00152716 0.0 
0.721133 -0.0256807 0.0 
-2.39744e-125 6.77915e-127 0.0 
0.692914 0.18109 0.0 
0.484675 0.0676176 0.0 
0.453545 0.0283296 0.0 
0.951602 0.0269856 0.0 
1.01742 0.182891 0.0 
0.0196658 -0.00480828 0.0 
0.0879839 0.00652846 0.0 
0 0 0.0 
1.00009 -0.00156187 0.0 
0.952588 0.0616769 0.0 
0.0741903 -0.0240974 0.0 
1.00058 0.000368092 0.0 
0.969832 -0.08133 0.0 
1.06583 0.0553514 0.0 
1.00199 0.0628865 0.0 
0.699685 -0.0132796 0.0 
0 0 0.0 
1.00416 0.000290865 0.0 
1.04816 0.00386901 0.0 
0.0208716 0.00158098 0.0 
1.00478 0.00202364 0.0 
1.02813 0.0202062 0.0 
1.01119 -0.00280948 0.0 
0.892101 -0.0814526 0.0 
0.181789 0.00545481 0.0 
0.473343 0.0107221 0.0 
1.00183 0 0.0 
0.00906881 0.00105679 0.0 
0.984987 0.000423041 0.0 
1.0923 0.0563666 0.0 
0.0482903 0.00232798 0.0 
1.00033 -0.000306336 0.0 
0.0221164 -0.00233256 0.0 
0.00845524 -0.0014888 0.0 
0.818186 0.210538 0.0 
0.900382 -0.00911788 0.0 
0.461353 0.00174901 0.0 
0.991901 0.0102785 0.0 
1.01808 0.00376919 0.0 
1.00005 -4.40307e-05 0.0 
1.00003 0.000332181 0.0 
0.952132 0.0285544 0.0 
0.971774 0.158796 0.0 
0.25675 -0.02307 0.0 
0.0325201 0.000276746 0.0 
0.0223733 -1.58287e-05 0.0 
0.787866 0.217604 0.0 
1e-307 1e-307 0.0 
0.0582622 -0.0183024 0.0 
0.807053 0.20417 0.0 
0.830554 0.204324 0.0 
1.00424 0.00231609 0.0 
0.675806 -0.0137417 0.0 
0.999976 -0.000202422 0.0 
1.00017 -0.00241957 0.0 
0.0115149 0.00118417 0.0 
1.0026 0 0.0 
1.0107 0.0242847 0.0 
0 0 0.0 
1.0002 0.0016399 0.0 
0.998511 -0.00202049 0.0 
0.0576079 -0.000965443 0.0 
0.0042121 -0.000881914 0.0 
1.00372 0 0.0 
0.950568 -0.259065 0.0 
1.00237 0.00244308 0.0 
0.978343 0.252224 0.0 
0.298003 0.0272814 0.0 
1.46011e-158 4.39174e-159 0.0 
0.0245214 0.000549192 0.0 
0 0 0.0 
1.00612 0.00118579 0.0 
0.999835 -6.95249e-06 0.0 
1.00012 -0.000177077 0.0 
0 0 0.0 
0.24685 -0.00582087 0.0 
0.516671 0.00139889 0.0 
1.00041 0 0.0 
1.00351 -0.00113141 0.0 
1.00039 0.000489002 0.0 
0.999854 0.000140198 0.0 
1.005 -0.000125767 0.0 
0.999825 -1.74117e-05 0.0 
0.0879646 -0.00855557 0.0 
1.02141 -0.244936 0.0 
0.887091 -0.217107 0.0 
0.0289921 -0.0022305 0.0 
0.00843289 -0.00168899 0.0 
0.193151 0.00498242 0.0 
1.02399 0.00547799 0.0 
0.747849 -0.0123801 0.0 
0.846574 0.193196 0.0 
0.42387 -0.00721332 0.0 
0.999741 4.12154e-05 0.0 
1.00039 0 0.0 
0 0 0.0 
1.005 -0.00280554 0.0 
1.00056 0.00108566 0.0 
1.03367 -0.00121949 0.0 
1.00139 -0.000583269 0.0 
0 0 0.0 
0.878384 -0.367368 0.0 
1.00189 0.00272868 0.0 
0.463002 0.0138245 0.0 
0.999982 -0.000598992 0.0 
0.899538 -0.20857 0.0 
8.72429e-06 6.1896e-07 0.0 
0.92889 0.0293286 0.0 
0 0 0.0 
0.981928 -0.0147395 0.0 
0.41076 -0.0368863 0.0 
0.382074 0.00111991 0.0 
0.120635 -0.0123233 0.0 
0.994998 -0.302261 0.0 
0.962639 0.273288 0.0 
1.00032 0 0.0 
8.15178e-205 8.64962e-206 0.0 
0.279935 -0.173355 0.0 
0.0564965 0.000533849 0.0 
0.995062 -0.007344 0.0 
0.317937 0.0109265 0.0 
0 0 0.0 
0 0 0.0 
0.999929 0.000700105 0.0 
0.265479 -0.0286725 0.0 
0.315187 -0.00303707 0.0 
0.979984 -0.0464239 0.0 
0.188136 0.00404038 0.0 
1.00645 -0.280675 0.0 
1.00246 0 0.0 
1.00368 -0.00597504 0.0 
1.00077 0.00262086 0.0 
0.00146573 -0.000196642 0.0 
6.55835e-93 -5.07551e-94 0.0 
1.00519 -0.00790914 0.0 
0.805057 -0.413337 0.0 
0.361025 -0.14955 0.0 
0.892586 -0.318991 0.0 
1.00272 0.00226993 0.0 
0.965947 -0.18922 0.0 
0.312705 -0.112733 0.0 
0.963816 -0.324977 0.0 
0.823356 -0.021814 0.0 
0.278238 -0.329021 0.0 
0.0103357 -0.000258082 0.0 
1.04424 0.211308 0.0 
0.996424 -0.00108997 0.0 
0 0 0.0 
0.138623 0.020852 0.0 
0 0 0.0 
0.125436 -0.0181549 0.0 
0.999999 -3.48927e-05 0.0 
1.00004 -0.000228728 0.0 
1.03673 -0.252874 0.0 
0.881907 0.0141882 0.0 
0.306579 0.0281522 0.0 
0.0114088 0.000195138 0.0 
1.00729 -0.00494557 0.0 
0.0275418 -0.00136727 0.0 
0.711218 0.01668 0.0 
1.0009 0 0.0 
0.936071 -0.0132054 0.0 
0.999816 -0.000174435 0.0 
0.999808 -9.20264e-06 0.0 
0.740699 -0.0367246 0.0 
0.149031 -0.0239014 0.0 
1.02952 -0.0557863 0.0 
1.07212 0.153752 0.0 
1.00126 0.00222637 0.0 
0.0820495 0.00222529 0.0 
0.535319 0.0131039 0.0 
0 0 0.0 
1 0 0.0 
0.499918 -0.352393 0.0 
0 0 0.0 
0.35184 -0.00588844 0.0 
0.826584 0.0173151 0.0 
1.00232 0.00578444 0.0 
1.00544 -0.000925572 0.0 
0.99967 8.84339e-06 0.0 
0.163329 0.00406931 0.0 
0.915343 0.149076 0.0 
1.00235 -0.00147168 0.0 
1.00788 -0.00624169 0.0 
0.0118247 0.00101256 0.0 
0.0264933 -0.00445791 0.0 
0.218591 0.00443822 0.0 
0.999241 0.000670972 0.0 
1.00003 -0.000221163 0.0 
1.00019 0 0.0 
0.987433 0.0415627 0.0 
0.714124 0.0223043 0.0 
0.999466 -0.000443244 0.0 
1.00352 -0.00023185 0.0 
1.00537 -0.000724863 0.0 
0.0297738 0.00131545 0.0 
0.184465 -0.021581 0.0 
0 0 0.0 
0.177139 -0.025024 0.0 
1.03046 0.236792 0.0 
0.997541 0.00675035 0.0 
1.00558 0.000866712 0.0 
1.00512 -0.00647332 0.0 
0.993731 0.00668611 0.0 
0.386098 0.0180097 0.0 
0 0 0.0 
1.02616 -0.00847323 0.0 
0.999806 0.000327532 0.0 
0.177717 0.00465055 0.0 
0.999992 3.07329e-05 0.0 
1.00415 -0.000210619 0.0 
0.999362 -0.0270389 0.0 
0.27341 -0.0303687 0.0 
0.0380823 -0.00638754 0.0 
1.00468 -0.000125566 0.0 
0.977517 0.0158151 0.0 
0.999799 3.3718e-05 0.0 
0.998365 -0.00122634 0.0 
0.996936 0.02381 0.0 
0.0228863 -0.00254328 0.0 
0.707145 -0.045453 0.0 
0.191544 0.0129837 0.0 
0.0436902 -0.00364165 0.0 
0.998997 -0.000829842 0.0 
0.253421 -0.175454 0.0 
0 0 0.0 
0.946631 -0.0340392 0.0 
1.00059 0.000412702 0.0 
0.0200243 0.000477188 0.0 
1.00001 -0.000165462 0.0 
0.245856 0.0189698 0.0 
0.805073 -0.0216372 0.0 
0.38171 0.014936 0.0 
1.00071 0.00421996 0.0 
1.00431 0 0.0 
1.00616 -0.00187461 0.0 
1.00332 -0.000525708 0.0 
1.01127 -0.00557047 0.0 
1.01592 0.0213087 0.0 
0.999723 -5.66423e-05 0.0 
0.0816581 0.0461825 0.0 
1.00057 0.00142329 0.0 
1.00037 9.59638e-05 0.0 
0.879476 -0.0952502 0.0 
1.00183 0.0010333 0.0 
0 0 0.0 
0.40834 0.00601092 0.0 
1.00649 0.0049694 0.0 
1.00906 -0.00698006 0.0 
0.785133 0.342989 0.0 
0.992821 0.0607601 0.0 
1.0055 -0.00439333 0.0 
0.191142 -0.0247015 0.0 
0.416091 -0.0166974 0.0 
0.00118271 1.88112e-05 0.0 
1.00742 -0.00457398 0.0 
0.882713 -0.0374554 0.0 
0.075398 0.00221531 0.0 
1.00667 0.000915275 0.0 
1.09627 0.102041 0.0 
1.01381 0.00116098 0.0 
0 0 0.0 
0.487321 -0.00174256 0.0 
1.00477 7.84527e-05 0.0 
0.999857 -0.00539905 0.0 
0.944841 0.00120122 0.0 
0.999545 -4.85887e-05 0.0 
1.00658 -0.00129223 0.0 
1.00123 -0.00389747 0.0 
1.00427 0.00336393 0.0 
0.0251449 0.00170124 0.0 
1.00216 0.00578243 0.0 
1.00482 0.000141911 0.0 
0 0 0.0 
0.978059 0.0376416 0.0 
1.0042 -0.00118128 0.0 
0.999574 0.00176365 0.0 
1.00266 0 0.0 
1.12189 0.113337 0.0 
1.00225 0.00465164 0.0 
0.154296 -0.0293001 0.0 
0.20986 -0.0195383 0.0 
1.00643 0.00103388 0.0 
0.99767 0.0237731 0.0 
0.80338 0.319301 0.0 
1.02533 0.0131471 0.0 
1.0003 -0.000179935 0.0 
0.330314 0.00496291 0.0 
1.00855 -0.00720776 0.0 
0 0 0.0 
0.999969 -3.53575e-05 0.0 
0.254453 -0.049458 0.0 
2.19496e-52 -1.70858e-53 0.0 
0.00101022 1.48848e-05 0.0 
0.773012 -0.028347 0.0 
0.980994 0.00554026 0.0 
1.0171 0.0168242 0.0 
0.69397 0.00106451 0.0 
1.00011 0.0007951 0.0 
1.04645 0.243469 0.0 
0.3275 0.00782243 0.0 
1.00002 0.000406586 0.0 
0.544386 0.0100927 0.0 
1.00499 6.85877e-05 0.0 
1.00208 -0.00156124 0.0 
0.962296 -0.283539 0.0 
0.507342 0.0141701 0.0 
-6.47162e-116 -1.27405e-117 0.0 
0.924783 -0.305405 0.0 
0.997369 -0.000734662 0.0 
0.999365 0.000723057 0.0 
1.00624 0.000232427 0.0 
0 0 0.0 
1.00002 -0.000179332 0.0 
0.964168 0.182441 0.0 
1.00032 0.000222919 0.0 
0.99961 0.00268186 0.0 
0.0182186 -0.000285699 0.0 
0.913979 -0.0227737 0.0 
1.01678 0.221969 0.0 
0.0298887 -0.00397522 0.0 
1.00024 0.000351848 0.0 
0.0937704 -0.0048857 0.0 
0.21286 -0.0205146 0.0 
1.00104 -0.00049033 0.0 
1.01016 0.00380754 0.0 
1.09126 0.100672 0.0 
1.01844 0.00971522 0.0 
0 0 0.0 
0.99996 0.000205622 0.0 
0.642231 0.0150865 0.0 
0.705769 0.0910367 0.0 
0.986333 -0.00509163 0.0 
1.00236 0.00378025 0.0 
1.00082 -0.000641845 0.0 
0.983855 0.0490665 0.0 
1.00597 0.00217642 0.0 
0.051438 0.0010758 0.0 
1.0057 0.000456683 0.0 
1.00332 0.00100142 0.0 
1.00243 0.00174245 0.0 
1.00527 0.000191656 0.0 
1.0088 0.00306145 0.0 
1.00003 0.000301693 0.0 
1.0009 0.00237742 0.0 
0.999955 0.000221196 0.0 
1.00644 -2.99286e-06 0.0 
0.997985 -0.00414373 0.0 
0.228667 0.0228464 0.0 
0.999728 9.45444e-05 0.0 
1.00885 -0.00888145 0.0 
1.00492 -0.000107453 0.0 
0.995545 -0.00148262 0.0 
1e-307 1e-307 0.0 
1.00475 -0.0041386 0.0 
1.00896 0.00568991 0.0 
0.000907916 4.53813e-05 0.0 
0.387111 -0.0110716 0.0 
1.09584 0.0879507 0.0 
0.999697 6.81171e-05 0.0 
1.07346 0.054023 0.0 
0.0137154 0.00127082 0.0 
0.607578 -0.0506759 0.0 
0.0440474 -0.00443654 0.0 
0.875869 -0.0767995 0.0 
0.90027 0.0190264 0.0 
0 0 0.0 
0.0116158 -0.00094345 0.0 
1.00011 -0.000538895 0.0 
0.00898299 0.000621592 0.0 
1.00109 0.000206948 0.0 
1.00093 0.000308238 0.0 
0.0375678 0.00142039 0.0 
0.672031 0.0153546 0.0 
0.20464 0.0173621 0.0 
0.999067 -7.0736e-05 0.0 
0.00416791 0.000312888 0.0 
1.00241 0.00123906 0.0 
1.00019 -0.000558791 0.0 
1.00383 0.000235624 0.0 
0 0 0.0 
0.0500657 -0.0113466 0.0 
0.211366 -0.0084082 0.0 
0 0 0.0 
1.00001 2.24922e-05 0.0 
1.00217 0.000755214 0.0 
0.257279 0.0226621 0.0 
0.873305 -0.0171528 0.0 
0.863885 0.0306515 0.0 
0.941164 -0.0121892 0.0 
0.99967 0.000153519 0.0 
0.0309939 -0.0169341 0.0 
0.0210409 0.00177973 0.0 
1.00479 -0.00226831 0.0 
0.509008 -0.0409375 0.0 
0.942444 -0.0103933 0.0 
0.034747 0.0130948 0.0 
8.88901e-06 -5.5587e-07 0.0 
0.999868 0.000282087 0.0 
0.611516 -0.0474848 0.0 
1.00653 0.00215205 0.0 
1.00697 -0.0454806 0.0 
0.999822 -2.22856e-06 0.0 
1.00005 -0.000432556 0.0 
1.12196 0.0823461 0.0 
1.00483 -0.00223602 0.0 
1.00773 0.00298695 0.0 
0.998933 0.00444995 0.0 
1.00021 0.000331878 0.0 
0.0169891 -0.00264691 0.0 
1.00167 -0.00047924 0.0 
0.697343 -0.0398985 0.0 
1.00641 -0.00786593 0.0 
1.03249 -0.0264402 0.0 
1.00162 0.000299463 0.0 
1.00458 -0.000325589 0.0 
1.00451 -0.00258232 0.0 
0.230955 -0.0145967 0.0 
0.0163182 -0.00233521 0.0 
0.999777 2.44262e-05 0.0 
0.0292423 0.000335513 0.0 
0.0604184 -0.00904834 0.0 
0.148276 -0.018948 0.0 
0.0148849 -0.00308083 0.0 
0.998287 0.206961 0.0 
1.00457 -0.00604566 0.0 
0.999928 0.000752618 0.0 
0.717856 -0.00582619 0.0 
1 -0.000924828 0.0 
0.17059 -0.0206184 0.0 
0.0397261 0.0154104 0.0 
0.868631 -0.0509547 0.0 
0.000891673 3.96601e-05 0.0 
0.999081 -0.000657479 0.0 
1.00053 -0.00244793 0.0 
0.956668 0.0284409 0.0 
1.00004 0.00151635 0.0 
1.00604 -0.00271758 0.0 
1.00597 0.000861501 0.0 
0.516391 -0.0375596 0.0 
0.334294 -0.00592412 0.0 
0.218483 0.00566754 0.0 
0.213557 0.00574921 0.0 
0.962599 -0.0563078 0.0 
-2.83924e-271 -1.34959e-271 0.0 
0.580032 0.0720868 0.0 
0.999818 0.000169133 0.0 
1.02748 -0.100554 0.0 
1.00001 -0.000253597 0.0 
0 0 0.0 
1.00444 -0.00536965 0.0 
0.86315 0.0316628 0.0 
0.75607 0.026089 0.0 
1.0067 0.00235113 0.0 
1.00838 -0.000821908 0.0 
0.000520864 -7.65616e-05 0.0 
1.00031 0.000136687 0.0 
1.00147 0 0.0 
1 0.000229679 0.0 
1 0 0.0 
1.00388 0.00372047 0.0 
0.404671 0.00509761 0.0 
0.452971 -0.30723 0.0 
0.432871 0.00780179 0.0 
0.000178522 -2.09444e-05 0.0 
0.999812 0.000203158 0.0 
0.998501 -0.000674352 0.0 
1.00479 0.000256396 0.0 
0.999596 -0.000156394 0.0 
1.00415 -0.000532756 0.0 
0.999759 4.1348e-05 0.0 
0.999683 -0.000230629 0.0 
0.0642572 0.00137493 0.0 
1.00096 0.00209267 0.0 
1.07413 0.100797 0.0 
1.00025 0.000302672 0.0 
0.999651 -0.000294738 0.0 
0.391182 0.00547844 0.0 
1.00043 -0.000240748 0.0 
0 0 0.0 
0 0 0.0 
0.362941 0.00847085 0.0 
0.0125156 -0.0021872 0.0 
0.999961 0.000648291 0.0 
0.999798 -8.34456e-05 0.0 
0.884314 0.241558 0.0 
0.895706 0.0144305 0.0 
0.999994 0.00114181 0.0 
1.00007 -0.000672952 0.0 
0.0630881 0.00272196 0.0 
1.0002 -0.000229414 0.0 
0.927788 -0.163808 0.0 
0.790826 -0.0525919 0.0 
0.817018 0.127136 0.0 
1.0001 -0.000413391 0.0 
0.815539 0.0144553 0.0 
0.999597 0.000146059 0.0 
0.420458 0.00199905 0.0 
0.845003 -0.0234128 0.0 
1.00845 0.00284021 0.0 
0.435837 -0.00111098 0.0 
1.00733 -0.00134356 0.0 
1.00128 -0.00641288 0.0 
1.00133 0.00533629 0.0 
1.00377 -0.00134756 0.0 
1.01358 -0.00682077 0.0 
1.00398 -0.00230551 0.0 
0.345813 0.0106948 0.0 
1.00091 0.0167944 0.0 
0.954921 0.08602 0.0 
0.725636 -0.0312096 0.0 
0.999767 -2.94275e-05 0.0 
1.00464 -0.00263983 0.0 
0.962016 -0.0444469 0.0 
1.00512 -0.0103756 0.0 
0.996798 -0.0641325 0.0 
0.336168 -0.00137104 0.0 
0.166746 0.00539371 0.0 
0.356644 -0.00195992 0.0 
1.002 0.000742329 0.0 
0.0183912 -0.00238599 0.0 
1.00546 0.00156845 0.0 
0.788592 0.141367 0.0 
0.999373 -0.000504221 0.0 
1.00539 -0.000340541 0.0 
1.00339 0.00149636 0.0 
0.996821 -0.000136073 0.0 
1.00615 0.00199834 0.0 
0.0367946 -0.00727447 0.0 
1.00007 -0.000217424 0.0 
0.348657 0.00101837 0.0 
1.00672 -0.00667819 0.0 
0.284645 -0.0411387 0.0 
0.795675 -0.00122401 0.0 
0.999833 -0.000273383 0.0 
0.997733 0.00434012 0.0 
0.932248 0.0636928 0.0 
1.00001 -0.000130283 0.0 
1.00928 -0.00603713 0.0 
0.0121366 -0.00190813 0.0 
1.12611 0.0860536 0.0 
0.91384 -0.0157721 0.0 
1.00317 0.00213001 0.0 
0.237339 -0.000471569 0.0 
0.14924 -0.00221967 0.0 
0.317844 0.0435287 0.0 
1.00174 -0.0181711 0.0 
0.837747 -0.0519766 0.0 
1 -0.000247867 0.0 
0.323018 -0.234542 0.0 
0.390918 0.0874577 0.0 
1.03109 0.0130584 0.0 
0.139732 0.00474794 0.0 
1.00275 0.0102941 0.0 
1.00649 0.00268377 0.0 
0.999927 0.000204403 0.0 
0.995697 -0.00338265 0.0 
0.942689 -0.0376925 0.0 
0.0391815 -0.00557853 0.0 
1.00613 0.00283783 0.0 
0.961295 -0.0253381 0.0 
0 0 0.0 
1.0003 0 0.0 
0.990428 -6.64566e-05 0.0 
1.00002 0.000243246 0.0 
1.04039 -0.00249245 0.0 
0.000123509 5.31875e-06 0.0 
1.00462 0.00148491 0.0 
1.00989 -0.00474047 0.0 
0.213363 0.0053408 0.0 
0 0 0.0 
0.886468 -0.0551354 0.0 
0.0152206 -0.0275815 0.0 
1.00111 0.000408335 0.0 
0.0227801 -0.000140449 0.0 
1.00645 0.00191217 0.0 
0.99059 -0.00334531 0.0 
1.00094 9.81129e-05 0.0 
0.914835 -0.372807 0.0 
0.0119044 0.000900262 0.0 
0.999621 1.51899e-05 0.0 
0.274935 0.00475826 0.0 
0.131152 -0.0178204 0.0 
0.180523 0.000515441 0.0 
1.00004 0.000633059 0.0 
0.241848 0.00486232 0.0 
0.533785 0.00249915 0.0 
1.00764 -0.00230755 0.0 
1.05597 0.0989294 0.0 
1.00012 -0.000231819 0.0 
0.999772 0.00184045 0.0 
0 0 0.0 
1.00076 5.91845e-05 0.0 
0.856497 0.0119033 0.0 
1.00497 0 0.0 
0.884209 -0.0204095 0.0 
0.836243 0.118081 0.0 
0.0207504 0.00191558 0.0 
1.0002 0.000415472 0.0 
1.00163 0.000223126 0.0 
0.129123 0.0339759 0.0 
1.11752 0.0439812 0.0 
0.818315 -0.026935 0.0 
0.0103575 0.00133336 0.0 
0.0207981 -0.000858034 0.0 
1.00188 0.00207388 0.0 
0.999978 9.5041e-06 0.0 
1.00182 -0.00408097 0.0 
1.00103 0.000502631 0.0 
1 0.000127674 0.0 