<VTKFile type="UnstructuredGrid" version="0.1" byte_order="LittleEndian">
  <UnstructuredGrid>
    <Piece NumberOfPoints="14054" NumberOfCells="27919">
      <Points>
        <DataArray type = "Float64" NumberOfComponents="3" format="ascii">
0 0 0.0 
14 0 0.0 
14 8 0.0 
0 8 0.0 
4.0396 3.9868 0.0 
5.25342 3.96365 0.0 
8.09832 8 0.0 
4.24902 3.99062 0.0 
4.2927 3.98912 0.0 
4.69846 3.99389 0.0 
4.09461 4.0244 0.0 
4.55077 3.99842 0.0 
13.5625 6.74091 0.0 
4.49306 4.00951 0.0 
4.07057 3.9639 0.0 
4.53824 7.43039 0.0 
0.443017 2.69308 0.0 
3.98741 4.04054 0.0 
3.98768 4.02653 0.0 
4.41534 4.03415 0.0 
4.0462 3.99512 0.0 
0.373721 2.90814 0.0 
0.151059 5.05835 0.0 
3.98227 4.03242 0.0 
4.22535 4.08603 0.0 
4.67405 4.10923 0.0 
1.86969 0 0.0 
4.80484 4.03022 0.0 
4.61584 4.00791 0.0 
4.17619 4.02273 0.0 
12.1265 0 0.0 
4.13177 4.05943 0.0 
4.44563 3.99754 0.0 
4.3381 3.99483 0.0 
4.70581 4.06801 0.0 
4.15173 4.0244 0.0 
4.13489 4.05432 0.0 
4.07289 4.03975 0.0 
4.31626 3.99014 0.0 
4.41206 4.03579 0.0 
4.34186 3.99103 0.0 
4.50422 4.01048 0.0 
4.48435 4.03561 0.0 
0 3.36284 0.0 
4.72679 4.00115 0.0 
4.2936 4.04119 0.0 
3.99603 4.04719 0.0 
4.33234 4.03886 0.0 
4.80655 4.07823 0.0 
4.0273 4.01367 0.0 
1.05536 0.443405 0.0 
4.433 4.04615 0.0 
4.20671 3.96232 0.0 
4.90673 4.07293 0.0 
8.94307 3.82141 0.0 
4.74743 4.02616 0.0 
4.36308 3.97041 0.0 
4.62327 4.01423 0.0 
4.12607 4.05951 0.0 
4.16428 4.04694 0.0 
4.2483 4.03635 0.0 
4.16037 3.98541 0.0 
4.0955 3.94899 0.0 
4.03444 4.04627 0.0 
4.55021 4.02288 0.0 
4.00163 4.02959 0.0 
4.02005 3.99731 0.0 
5.23503 8 0.0 
4.11187 4.00352 0.0 
4.5726 3.9535 0.0 
4.04649 3.98021 0.0 
3.99575 4.05299 0.0 
0.420704 7.8096 0.0 
4.3128 4.02997 0.0 
4.52413 3.99699 0.0 
4.56206 1.73437 0.0 
4.60009 3.94474 0.0 
12.1753 3.5088 0.0 
4.25823 3.98968 0.0 
5.1201 4.07987 0.0 
4.30258 3.97959 0.0 
4.50261 3.99491 0.0 
1.8052 6.2699 0.0 
4.50169 4.01333 0.0 
4.04672 4.0202 0.0 
13.8358 7.07219 0.0 
4.80303 3.99773 0.0 
4.54772 3.97659 0.0 
3.96947 4.02134 0.0 
4.42825 4.00991 0.0 
4.27183 4.05112 0.0 
3.92219 3.93734 0.0 
3.96297 3.96024 0.0 
4.01031 3.94339 0.0 
4.15932 4.03394 0.0 
4.94279 3.90004 0.0 
4.11692 3.94964 0.0 
4.07784 4.01355 0.0 
3.95785 3.95439 0.0 
9.16151 6.19849 0.0 
4.02972 4.04518 0.0 
4.38011 3.98807 0.0 
4.21131 3.97058 0.0 
4.30377 3.98175 0.0 
3.97141 4.03046 0.0 
4.54574 3.99836 0.0 
3.97561 4.03322 0.0 
4.15949 3.98087 0.0 
3.97816 4.02179 0.0 
4.04633 4.03304 0.0 
3.96767 4.02507 0.0 
4.53971 3.97638 0.0 
4.01935 4.01947 0.0 
4.22758 3.98843 0.0 
4.54225 3.97864 0.0 
4.01411 4.01149 0.0 
4.47078 3.99676 0.0 
4.50619 4.01098 0.0 
4.54991 3.98013 0.0 
4.09731 3.96436 0.0 
6.74704 7.50701 0.0 
5.08981 3.98776 0.0 
4.23468 3.97496 0.0 
4.73521 7.52615 0.0 
4.07782 3.9922 0.0 
4.95447 3.93167 0.0 
4.25001 4.04358 0.0 
3.95176 3.95619 0.0 
4.21259 3.97823 0.0 
4.21866 3.97499 0.0 
4.06171 3.97809 0.0 
4.46833 4.03717 0.0 
4.11581 4.05249 0.0 
7.39132 0.561385 0.0 
4.19496 4.04632 0.0 
4.5164 4.00929 0.0 
4.20485 3.96887 0.0 
4.81648 4.13568 0.0 
4.23843 3.97477 0.0 
4.10117 3.96057 0.0 
5.17626 4.11911 0.0 
4.83278 4.09824 0.0 
4.46832 4.03304 0.0 
5.24823 4.02843 0.0 
6.37297 2.73989 0.0 
6.50541 6.65271 0.0 
4.0914 3.96216 0.0 
8.79181 7.69132 0.0 
4.42051 4.01383 0.0 
4.26774 4.04352 0.0 
4.5216 4.00891 0.0 
0 5.29811 0.0 
12.6474 3.41509 0.0 
4.05312 3.99197 0.0 
3.97586 4.01385 0.0 
13.7435 8 0.0 
4.11702 4.02719 0.0 
4.21306 4.04639 0.0 
6.67367 0 0.0 
4.16905 4.01587 0.0 
4.28606 3.9898 0.0 
4.95548 3.99923 0.0 
4.53966 3.99992 0.0 
3.95907 4.14135 0.0 
4.47259 4.0371 0.0 
4.55171 4.02496 0.0 
4.03874 3.11132 0.0 
4.47142 4.03459 0.0 
4.21852 4.01725 0.0 
4.14275 4.01366 0.0 
10.4118 5.08662 0.0 
4.31303 4.02575 0.0 
6.22735 7.50315 0.0 
4.50157 4.00462 0.0 
4.42841 4.03698 0.0 
13.4653 0.705634 0.0 
4.00932 4.01975 0.0 
5.25706 4.0823 0.0 
8.95603 7.57132 0.0 
4.0534 3.98551 0.0 
4.01084 3.97813 0.0 
3.98122 4.01031 0.0 
11.5703 4.18823 0.0 
0.382884 7.40906 0.0 
4.36082 3.99526 0.0 
4.178 4.03035 0.0 
4.29998 3.97509 0.0 
1.36116 1.78512 0.0 
11.3934 4.07618 0.0 
4.40865 3.99657 0.0 
3.04298 2.00142 0.0 
4.54778 4.01674 0.0 
4.17083 4.04915 0.0 
4.08906 3.95484 0.0 
4.52683 3.98206 0.0 
5.19921 3.79695 0.0 
0.899835 3.25576 0.0 
3.63066 3.86728 0.0 
4.09428 3.96323 0.0 
4.01787 3.95968 0.0 
4.06966 3.97575 0.0 
5.99109 3.80736 0.0 
6.04319 7.63644 0.0 
4.06763 3.97375 0.0 
4.02874 4.02049 0.0 
4.39158 3.97784 0.0 
4.17189 3.98799 0.0 
12.0372 1.49526 0.0 
4.47535 4.04506 0.0 
4.2213 4.09576 0.0 
10.4619 3.53679 0.0 
4.39789 4.02787 0.0 
4.45805 4.02203 0.0 
5.11499 3.91409 0.0 
4.53154 4.0108 0.0 
4.27171 4.0437 0.0 
6.38052 3.13775 0.0 
5.9291 5.15993 0.0 
5.08796 3.97247 0.0 
4.39915 4.011 0.0 
9.4176 1.73395 0.0 
4.28049 4.04409 0.0 
4.01937 3.98978 0.0 
4.06261 4.0669 0.0 
10.358 3.36045 0.0 
4.20552 3.97966 0.0 
0 1.32776 0.0 
8.35832 2.9685 0.0 
13.4699 7.45697 0.0 
5.20117 3.96378 0.0 
4.27486 3.99108 0.0 
4.01229 3.97705 0.0 
4.06076 3.97364 0.0 
4.06527 4.00013 0.0 
9.58277 3.65337 0.0 
4.09808 4.03387 0.0 
4.17696 4.04604 0.0 
4.15927 4.04221 0.0 
4.66537 4.0011 0.0 
4.0005 3.94996 0.0 
4.18843 3.95907 0.0 
4.00577 3.97873 0.0 
4.46517 4.03956 0.0 
5.1883 4.16272 0.0 
4.2762 3.98511 0.0 
4.45253 4.02127 0.0 
7.62224 2.88267 0.0 
7.22419 0.703495 0.0 
4.18451 4.02885 0.0 
4.42717 4.02972 0.0 
4.3038 4.02492 0.0 
4.18471 3.97029 0.0 
4.0422 4.3335 0.0 
14 7.50864 0.0 
9.45633 2.83279 0.0 
5.8599 3.0813 0.0 
4.38873 3.97681 0.0 
4.19342 3.98738 0.0 
13.7283 2.46074 0.0 
4.00535 3.95189 0.0 
4.141 3.98451 0.0 
4.39354 4.01416 0.0 
4.23243 4.07453 0.0 
4.6103 3.91602 0.0 
5.28285 3.91723 0.0 
3.75748 4.33899 0.0 
4.45489 4.022 0.0 
4.22759 5.1017 0.0 
4.11575 4.03408 0.0 
4.18931 3.98034 0.0 
4.20274 4.07949 0.0 
5.14405 4.10401 0.0 
12.5015 1.14918 0.0 
4.09797 3.95385 0.0 
4.23052 4.09368 0.0 
4.20868 4.08388 0.0 
4.43084 4.02362 0.0 
4.18262 3.97536 0.0 
4.50406 4.02387 0.0 
4.52103 3.97935 0.0 
12.282 6.14857 0.0 
0 1.05641 0.0 
4.00011 4.0245 0.0 
4.09399 4.58317 0.0 
4.45309 4.02369 0.0 
4.50202 4.01651 0.0 
4.43217 4.48169 0.0 
4.52182 4.01321 0.0 
8.82235 8 0.0 
4.14072 3.99547 0.0 
4.54904 4.03735 0.0 
6.6627 2.29498 0.0 
4.2355 4.09935 0.0 
4.01369 3.97538 0.0 
14 0.781324 0.0 
4.05769 3.99794 0.0 
5.18224 3.9998 0.0 
4.18824 4.05414 0.0 
4.32936 5.60671 0.0 
4.34445 4.012 0.0 
0.255049 4.91368 0.0 
4.4704 4.03985 0.0 
4.18122 3.97184 0.0 
5.45324 4.00732 0.0 
0.417479 6.31883 0.0 
4.22566 4.06555 0.0 
13.6419 7.1393 0.0 
4.68931 4.01592 0.0 
4.1403 4.03691 0.0 
5.29862 4.3302 0.0 
4.55292 4.0006 0.0 
3.99423 4.06421 0.0 
0.21871 6.38505 0.0 
4.57553 4.01147 0.0 
3.99155 4.04247 0.0 
3.99093 4.05263 0.0 
3.98858 4.04648 0.0 
3.97296 4.00674 0.0 
11.3714 7.19716 0.0 
9.192 5.81999 0.0 
5.51927 4.14829 0.0 
4.38562 3.98143 0.0 
8.0852 4.98963 0.0 
4.67134 3.89044 0.0 
4.42778 4.01198 0.0 
11.016 2.69137 0.0 
2.30378 3.03595 0.0 
3.53433 0 0.0 
4.21572 3.94595 0.0 
7.40997 8 0.0 
4.50575 4.02737 0.0 
2.86414 6.59491 0.0 
4.02545 4.02229 0.0 
4.06419 4.05585 0.0 
4.06328 4.04721 0.0 
5.30281 4.05753 0.0 
4.1105 3.95069 0.0 
6.78993 2.13526 0.0 
6.95076 5.01827 0.0 
0.846754 0.565038 0.0 
4.08953 4.02997 0.0 
4.02321 3.97317 0.0 
4.48579 4.00689 0.0 
1.2142 8 0.0 
7.59973 7.22298 0.0 
12.6277 1.80732 0.0 
14 4.58149 0.0 
5.85073 0.410811 0.0 
13.0902 7.46595 0.0 
3.99074 4.07212 0.0 
4.02912 3.96643 0.0 
3.9878 3.95947 0.0 
4.5031 4.02642 0.0 
7.22865 0 0.0 
4.51303 3.98607 0.0 
4.35729 4.00881 0.0 
3.96066 4.00697 0.0 
4.29807 4.01456 0.0 
13.0308 3.29431 0.0 
4.3598 4.01214 0.0 
13.1661 5.68046 0.0 
13.7895 0 0.0 
4.10795 4.02897 0.0 
4.13854 3.9863 0.0 
11.4357 2.10385 0.0 
4.05628 4.04136 0.0 
4.02022 3.98428 0.0 
4.00791 4.0033 0.0 
4.0088 3.9805 0.0 
9.75515 2.36072 0.0 
5.00064 4.00832 0.0 
12.8262 0.365959 0.0 
4.02947 3.97325 0.0 
4.78081 3.89558 0.0 
4.6454 3.91884 0.0 
4.00485 3.95979 0.0 
5.95986 3.88192 0.0 
4.01129 4.00596 0.0 
4.38809 4.01643 0.0 
4.3548 3.98328 0.0 
4.41475 3.97801 0.0 
4.31397 3.99348 0.0 
4.01755 3.97046 0.0 
4.00498 4.00961 0.0 
4.05953 4.0424 0.0 
0.777556 0 0.0 
4.30814 4.03928 0.0 
6.95962 7.64891 0.0 
4.51067 4.03031 0.0 
4.12513 4.00394 0.0 
4.05373 4.0206 0.0 
4.0593 4.0207 0.0 
5.23265 3.94627 0.0 
4.20936 4.04425 0.0 
3.85203 3.15903 0.0 
4.15516 3.94365 0.0 
4.21078 3.98014 0.0 
4.01683 3.96357 0.0 
8.32777 8 0.0 
4.19264 4.05366 0.0 
4.05396 4.05232 0.0 
4.62346 3.98036 0.0 
4.39641 3.97994 0.0 
4.40106 3.98006 0.0 
6.70909 6.94059 0.0 
4.01703 7.79668 0.0 
4.00437 3.9841 0.0 
4.38678 4.01478 0.0 
4.0134 3.97877 0.0 
3.03193 6.72582 0.0 
5.35511 4.08996 0.0 
4.01079 3.9893 0.0 
4.67384 4.01435 0.0 
4.36156 4.08272 0.0 
4.06462 4.00804 0.0 
4.9657 3.98377 0.0 
4.48824 4.01516 0.0 
4.57278 4.01594 0.0 
4.32637 4.10272 0.0 
2.5098 3.59854 0.0 
4.21036 4.03335 0.0 
5.04257 4.02916 0.0 
4.21732 4.03352 0.0 
4.53888 4.02662 0.0 
11.5792 7.84461 0.0 
0.551344 1.2516 0.0 
5.23354 4.10648 0.0 
4.02575 3.96118 0.0 
4.39173 4.05758 0.0 
4.26467 3.98951 0.0 
5.52859 3.66357 0.0 
4.46058 3.99785 0.0 
4.35035 4.01257 0.0 
4.11892 3.9758 0.0 
4.27505 3.98806 0.0 
4.39831 4.01807 0.0 
4.18311 3.98774 0.0 
11.8351 6.74811 0.0 
4.33752 4.03751 0.0 
4.1127 3.96242 0.0 
4.53422 4.00308 0.0 
4.03236 3.93948 0.0 
4.15116 3.93854 0.0 
4.13176 4.07898 0.0 
10.2186 2.28825 0.0 
4.97552 3.92162 0.0 
4.00238 3.93806 0.0 
4.88233 3.97992 0.0 
4.35846 3.99572 0.0 
4.00279 3.99128 0.0 
4.05385 4.00986 0.0 
4.85809 4.01513 0.0 
5.45652 5.2281 0.0 
4.66615 4.02354 0.0 
6.32476 7.00417 0.0 
12.5996 5.63737 0.0 
4.66222 4.02916 0.0 
4.19855 4.03407 0.0 
10.4908 7.41058 0.0 
7.97634 2.05223 0.0 
4.98663 3.97562 0.0 
4.51666 4.02891 0.0 
4.20862 3.97868 0.0 
11.5808 3.97719 0.0 
4.40679 3.99465 0.0 
3.28013 4.42376 0.0 
4.58534 4.50273 0.0 
3.96806 4.01296 0.0 
11.0968 5.75296 0.0 
6.49741 5.21617 0.0 
2.61514 0.506135 0.0 
4.14091 4.04918 0.0 
4.18898 4.08836 0.0 
3.60126 3.72352 0.0 
4.5467 4.03146 0.0 
4.52444 4.04134 0.0 
[...]
<PointData>
  <DataArray type = "Float64" Name="Vitesse" NumberOfComponents="3" format="ascii">
1 0 0.0 
1.00011 0 0.0 
0.999924 0 0.0 
1 0 0.0 
0.000664344 -2.54279e-05 0.0 
0.675565 0.00972599 0.0 
1.001 0 0.0 
0.00335939 5.32632e-05 0.0 
0.0556132 0.00174304 0.0 
0.271353 0.0142104 0.0 
0 0 0.0 
0.0189132 0.000228403 0.0 
0.999925 6.41445e-07 0.0 
-1.59443e-49 2.52639e-50 0.0 
0.87666 -0.0939796 0.0 
1.00416 0.000175919 0.0 
0.999973 -0.000170531 0.0 
0.776565 0.198012 0.0 
0.684439 0.190071 0.0 
0.0785714 -0.00936558 0.0 
-1.09611e-133 2.6595e-136 0.0 
0.999971 -0.000114225 0.0 
0.999998 0.000129299 0.0 
0.735415 0.164282 0.0 
1.00905 0.0502977 0.0 
0.971849 -0.0504768 0.0 
1.00064 0 0.0 
0.39665 -0.0190186 0.0 
0.122526 -0.00179334 0.0 
0 0 0.0 
1.00023 0 0.0 
0.736444 0.0933476 0.0 
0.00101432 1.70878e-06 0.0 
7.83703e-05 6.38834e-06 0.0 
0.688646 -0.0462522 0.0 
0 0 0.0 
0.544725 0.060478 0.0 
0.406411 0.0945632 0.0 
0.0494442 0.00322853 0.0 
0.0937358 -0.0109767 0.0 
0.0492378 0.00243553 0.0 
2.24146e-07 -3.437e-08 0.0 
0.168928 -0.0197282 0.0 
1 0 0.0 
0.264486 0.00601642 0.0 
0.0240335 -0.00161267 0.0 
0.817527 0.232447 0.0 
0.0351228 -0.00320595 0.0 
0.797547 -0.0395737 0.0 
0 0 0.0 
1.00018 -0.000163137 0.0 
0.254917 -0.0239394 0.0 
0.58269 -0.000864023 0.0 
0.775638 -0.0319948 0.0 
0.998801 0.000793199 0.0 
0.325917 -0.0174561 0.0 
0.39386 0.00817015 0.0 
0.138791 -0.010386 0.0 
0.768083 0.105621 0.0 
0.145124 0.00726492 0.0 
-2.06169e-171 1.19017e-172 0.0 
0.0529589 0.00197809 0.0 
1.0344 -0.0959878 0.0 
0.928566 0.316164 0.0 
0.110646 -0.0196581 0.0 
0.722703 0.310496 0.0 
0 0 0.0 
1.00386 0 0.0 
0 0 0.0 
0.657404 0.0299752 0.0 
0.370724 -0.0357728 0.0 
0.840144 0.221155 0.0 
1.00004 4.00546e-05 0.0 
-1.28422e-298 1.40947e-300 0.0 
0.0344483 0.000985278 0.0 
1.00507 -0.00164685 0.0 
0.749041 0.0338668 0.0 
0.999953 0.000147824 0.0 
0.0264491 0.00195871 0.0 
0.843652 -0.0254473 0.0 
0.225915 0.00556144 0.0 
0.0575365 0.00268427 0.0 
1.00065 0.00171034 0.0 
0.00405544 -0.000374862 0.0 
0 0 0.0 
0.999925 -1.0067e-06 0.0 
0.338971 0.00665527 0.0 
0.353584 0.015426 0.0 
0.727145 0.0679011 0.0 
0 0 0.0 
0.214577 -0.00866058 0.0 
0.90961 -0.0746821 0.0 
0.861065 -0.13736 0.0 
0.984439 -0.207845 0.0 
0 0 0.0 
0.96044 0.0182167 0.0 
0.982898 -0.0668901 0.0 
0 0 0.0 
0.875722 -0.124794 0.0 
0.99989 -0.000568877 0.0 
0.916335 0.323894 0.0 
0.112844 0.00337874 0.0 
0.398129 0.00402704 0.0 
0.187804 0.00482258 0.0 
0.752185 0.107543 0.0 
0.018395 0.000518363 0.0 
0.752884 0.131903 0.0 
0.159436 0.00481629 0.0 
0.688069 0.105527 0.0 
0.436871 0.135146 0.0 
0.745687 0.077367 0.0 
0.351886 0.0128444 0.0 
0.203856 0.0967729 0.0 
0.0307383 0.00149768 0.0 
0.321018 0.0122744 0.0 
-1.03774e-296 -6.52005e-297 0.0 
0.0183799 9.33066e-07 0.0 
1.8714e-06 -2.50414e-07 0.0 
0.3045 0.0143357 0.0 
0.739668 -0.0444491 0.0 
1.00239 -0.000607729 0.0 
0.526709 0.00598141 0.0 
0.301747 0.00603575 0.0 
1.00413 3.55627e-05 0.0 
-3.40097e-138 4.41912e-140 0.0 
0.83467 0.0195683 0.0 
0.0220105 -0.00240443 0.0 
0.873224 -0.111229 0.0 
0.230624 0.00386323 0.0 
0.301194 0.00475595 0.0 
0.377931 -0.0302501 0.0 
0.171277 -0.0192485 0.0 
0.588335 0.0850133 0.0 
1.00255 0.000554014 0.0 
0.0806444 0.00218307 0.0 
4.58273e-06 -4.19496e-07 0.0 
0.438711 0.00326713 0.0 
1.0091 -0.0372229 0.0 
0.305655 0.00605929 0.0 
0.827197 -0.0541817 0.0 
0.967297 -0.0241435 0.0 
0.915466 -0.0388594 0.0 
0.124602 -0.015049 0.0 
0.607041 -0.00998328 0.0 
1.00545 0.00468283 0.0 
1.0027 -0.0019121 0.0 
0.825088 -0.0613228 0.0 
1.00053 -0.000159543 0.0 
-1.26916e-301 2.92896e-302 0.0 
0.0382817 -0.00236674 0.0 
2.35355e-05 -2.29469e-06 0.0 
1 0 0.0 
0.99998 0.000115144 0.0 
1.14199e-257 -1.72544e-258 0.0 
0.666827 0.0459136 0.0 
0.999925 0 0.0 
0 0 0.0 
0.0718731 -0.00371877 0.0 
1.00321 0 0.0 
0 0 0.0 
0.0408077 0.000681111 0.0 
0.433167 0.00291439 0.0 
-4.37812e-45 -1.30687e-46 0.0 
0.951509 0.103653 0.0 
0.174736 -0.0197538 0.0 
0.129227 -0.0222365 0.0 
1.0079 -0.0124894 0.0 
0.144643 -0.0170705 0.0 
0 0 0.0 
0 0 0.0 
0.999661 -2.54403e-05 0.0 
-1.51351e-306 6.39064e-308 0.0 
1.00306 -0.000587492 0.0 
-1.18197e-128 -3.21848e-130 0.0 
0.126648 -0.0143801 0.0 
1.00012 2.98113e-05 0.0 
0.53069 0.309633 0.0 
0.866245 -0.0230484 0.0 
1.00043 -0.000202567 0.0 
0.0452343 0.0004533 0.0 
0.916733 -0.350417 0.0 
0.60621 0.0338906 0.0 
0.999855 0.000138901 0.0 
1.00003 0.00012077 0.0 
0.00262827 0.000284747 0.0 
0 0 0.0 
0.306305 0.00652974 0.0 
1.00011 -0.000737775 0.0 
0.999841 0.000164383 0.0 
6.21537e-05 3.7102e-07 0.0 
1.00141 -0.003191 0.0 
0.0641118 -0.0126191 0.0 
0.210738 0.00909017 0.0 
0.983589 -0.0920912 0.0 
0.262132 0.00770173 0.0 
1.011 0.00960885 0.0 
0.999778 -0.000153482 0.0 
0.972792 -0.0111347 0.0 
0.784201 -0.0526996 0.0 
1.01147 -0.263647 0.0 
0.446793 -0.0306707 0.0 
1.00925 0.00568202 0.0 
1.00325 -0.000403201 0.0 
0.54422 -0.0443711 0.0 
-4.97176e-175 -1.35819e-175 0.0 
0.278788 0.00732936 0.0 
0.00150714 0.000147003 0.0 
1.00016 0.000148749 0.0 
0.278614 -0.0275276 0.0 
1.09147 0.0644519 0.0 
0.999754 0.000383931 0.0 
-1.07867e-211 1.30914e-212 0.0 
0.0141897 -0.00114781 0.0 
0.910953 0.0142596 0.0 
0.0160619 -0.00284866 0.0 
0.0474439 -0.00439173 0.0 
1.0069 0.00621663 0.0 
1.0047 -0.00784251 0.0 
0.596322 0.0106022 0.0 
0 0 0.0 
1.00055 0.000830117 0.0 
0.0659407 -0.00471641 0.0 
4.76856e-05 -1.01563e-05 0.0 
1.0346 0.25534 0.0 
0.999773 0.000448141 0.0 
0.198604 0.00470207 0.0 
1 0 0.0 
0.999593 0.00232244 0.0 
0.999925 -9.41231e-07 0.0 
0.666837 0.0113867 0.0 
0.0141508 0.00176016 0.0 
0.931253 -0.338815 0.0 
0.590694 -0.0575233 0.0 
5.59135e-275 -9.75002e-277 0.0 
0.999399 0.000612926 0.0 
-1.35739e-295 -1.98675e-296 0.0 
0.089946 0.00711099 0.0 
1.98056e-05 -5.031e-07 0.0 
0.202545 0.0075051 0.0 
0.949439 -0.218988 0.0 
0.671349 -0.0070909 0.0 
0.897 -0.385075 0.0 
0.19724 -0.0211804 0.0 
1.00816 -0.0238877 0.0 
0.117104 0.00458548 0.0 
0.00471482 -0.0005149 0.0 
1.00052 0.00399486 0.0 
1.00273 0.000701878 0.0 
0 0 0.0 
0.0457267 -0.00642261 0.0 
0 0 0.0 
0.416054 0.00319774 0.0 
1.02016 0.0581204 0.0 
0.999924 -1.15767e-06 0.0 
0.999858 0.00097855 0.0 
1.00837 0.00466355 0.0 
0.294611 0.00746948 0.0 
0.0334776 0.00149109 0.0 
1.00005 5.89959e-05 0.0 
0.963318 -0.231494 0.0 
0.0618114 0.000787613 0.0 
0 0 0.0 
0.813601 0.0260719 0.0 
0.955633 0.0284328 0.0 
0.889545 0.0115395 0.0 
0.985535 0.0319717 0.0 
0.0110081 -0.00140559 0.0 
1.01335 0.0072399 0.0 
0 0 0.0 
0.180299 0.0048566 0.0 
0.957999 0.0614778 0.0 
0.935367 -0.0253493 0.0 
1.00016 9.05398e-05 0.0 
0.971577 -0.0804727 0.0 
1.07071 0.054577 0.0 
1.00719 0.0625324 0.0 
0.000199565 -2.58125e-05 0.0 
0.294906 0.00496707 0.0 
0.0744335 -0.0103641 0.0 
0.299079 0.00874685 0.0 
0.999902 -1.75494e-06 0.0 
1 0 0.0 
0.662447 0.312293 0.0 
1.02137 0.02629 0.0 
0.0212315 -0.0033374 0.0 
0.0212982 -0.00318626 0.0 
1.04064 0.00639307 0.0 
0.0200405 -0.00337578 0.0 
1.00053 0 0.0 
-1.54806e-217 -1.02296e-218 0.0 
0.250494 -0.0320326 0.0 
1.00404 0.00329991 0.0 
1.09793 0.0549099 0.0 
0.951155 -0.328882 0.0 
1.00011 2.16319e-05 0.0 
1.40202e-269 -2.44479e-271 0.0 
0.537055 0.000947499 0.0 
0.348959 0.0137781 0.0 
1.00905 0.00287667 0.0 
0 0 0.0 
0.99999 0.000205985 0.0 
0.206003 -0.0221843 0.0 
0.380464 0.00381822 0.0 
0.629408 -0.00177044 0.0 
1.00003 0.000326864 0.0 
0.615663 0.0146758 0.0 
0.999925 -7.28355e-07 0.0 
0.222918 -0.00875752 0.0 
0 0 0.0 
1.01239 -0.0191733 0.0 
6.08511e-90 -9.5667e-91 0.0 
0.871725 0.199895 0.0 
1.00001 0.000162949 0.0 
0.060823 -0.0185089 0.0 
0.789095 0.218159 0.0 
0.832227 0.20444 0.0 
0.805178 0.200724 0.0 
0.67648 -0.0137524 0.0 
0.999942 -3.69856e-05 0.0 
0.999677 -0.000567901 0.0 
1.0008 -0.021339 0.0 
0.219947 0.00610127 0.0 
0.998512 -0.0015508 0.0 
1.01304 0.0259595 0.0 
0 0 0.0 
1.00001 0.00035165 0.0 
0.99854 -0.00192119 0.0 
1.00249 0 0.0 
0.870664 -0.0160852 0.0 
1.00164 0 0.0 
0.106167 -0.0140695 0.0 
1.00231 0.00225371 0.0 
0.214048 0.0957503 0.0 
0.979709 0.252519 0.0 
0.819338 0.210572 0.0 
0.755722 -0.0178831 0.0 
0.983775 -0.071468 0.0 
1.00361 0.00292792 0.0 
0.998655 -0.00524324 0.0 
1.00011 -0.000163812 0.0 
6.41737e-261 8.02318e-262 0.0 
0.950745 -0.26 0.0 
-2.37809e-221 -1.37292e-222 0.0 
1.0004 0 0.0 
1.00132 -0.000776789 0.0 
1.00011 0.000114778 0.0 
0.999962 2.41729e-05 0.0 
1.00382 0.000170944 0.0 
0.999925 -1.71915e-06 0.0 
0.886382 0.181857 0.0 
1.02262 -0.245957 0.0 
0.888271 -0.217611 0.0 
0.0950043 -0.0127516 0.0 
1.0027 0 0.0 
0.195891 0.00550757 0.0 
0 0 0.0 
0.748689 -0.0124672 0.0 
0 0 0.0 
0.999997 9.304e-05 0.0 
0 0 0.0 
0.999922 1.63441e-05 0.0 
1.00012 0 0.0 
0 0 0.0 
0.0159994 0.000390751 0.0 
1.00012 0.000262884 0.0 
0.693996 0.185852 0.0 
0.473701 -0.121498 0.0 
0 0 0.0 
0.879051 -0.366874 0.0 
1.00014 0.000795645 0.0 
0.451 -0.00200695 0.0 
1.00016 2.49185e-05 0.0 
0.900124 -0.210098 0.0 
0.986514 0.0242766 0.0 
0.933492 0.0308726 0.0 
0.951774 -0.263107 0.0 
0.961131 0.00429513 0.0 
0 0 0.0 
0 0 0.0 
0.178831 0.00528862 0.0 
0.282349 0.00736188 0.0 
0.000132304 1.056e-05 0.0 
0.995742 -0.302862 0.0 
0.0697435 0.058602 0.0 
0.694338 0.179661 0.0 
1.00009 0 0.0 
0.0129244 -0.00166111 0.0 
1.00213 -0.000413455 0.0 
0.138895 -0.0176209 0.0 
0 0 0.0 
0 0 0.0 
0 0 0.0 
0.761538 0.0122001 0.0 
0.000895907 -1.97661e-05 0.0 
1.00409 -0.0135659 0.0 
0.981603 -0.0457989 0.0 
0.189573 0.00346924 0.0 
1.00762 -0.281363 0.0 
1.00083 0 0.0 
0.323047 0.0104327 0.0 
0.964282 0.27243 0.0 
0.329991 0.0298228 0.0 
0.246787 0.00688555 0.0 
0.246145 0.00689181 0.0 
1.00238 -0.00139687 0.0 
1.00367 0.000170149 0.0 
0.806306 -0.41294 0.0 
0 0 0.0 
0.892682 -0.318614 0.0 
1.00262 0.00203341 0.0 
0.901278 -0.0201803 0.0 
0.311844 -0.112003 0.0 
0.201821 -0.00718273 0.0 
0.832989 -0.0233811 0.0 
0 0 0.0 
0.494349 0.0110684 0.0 
0.000556945 -6.16015e-05 0.0 
0.0779653 -0.0245661 0.0 
1.05427 0.00207225 0.0 
0.996529 -0.00106581 0.0 
0 0 0.0 
0.527546 -0.012939 0.0 
0 0 0.0 
0.131433 -0.0190075 0.0 
0.999951 -6.44295e-06 0.0 
1.00003 -0.000212683 0.0 
0.942295 -0.0235849 0.0 
1.03809 -0.253707 0.0 
0.408748 -0.0280866 0.0 
0.033325 0.000938374 0.0 
1.00987 0.00608708 0.0 
0.000238427 2.06597e-05 0.0 
0 0 0.0 
0.316943 -0.00156416 0.0 
0.0649405 0.00339713 0.0 
0 0 0.0 
0.0179058 0.00147746 0.0 
0.999915 -2.38086e-05 0.0 
0.0214957 -0.00085161 0.0 
0.741222 -0.0357663 0.0 
-3.22216e-128 -2.40202e-130 0.0 
1.03779 -0.189763 0.0 
1.03109 -0.0551629 0.0 
1.07553 0.153627 0.0 
1.00014 0.00058326 0.0 
0.883535 0.0187755 0.0 
0.967256 -0.189649 0.0 
0.480368 0.0151045 0.0 
0.0001473 2.1484e-05 0.0 
0.500384 -0.350476 0.0 
0 0 0.0 
0.370726 -0.00653993 0.0 
1.00842 -0.00679941 0.0 
0.230502 -0.0181401 0.0 
1.00301 -0.00129482 0.0 
0.999906 1.85527e-05 0.0 
0.2649 -0.0244864 0.0 
0 0 0.0 
1.00002 -7.41235e-05 0.0 
1.00129 0.00212357 0.0 
0.54656 0.0130164 0.0 
0.131106 -0.0170886 0.0 
0.219974 0.00437519 0.0 
0.99987 0.00016132 0.0 
0.0241035 0.00139606 0.0 
0.992239 0.00973257 0.0 
1.03493 -0.00514779 0.0 
0.714929 0.0223355 0.0 
0.99983 -4.30932e-05 0.0 
1.00085 -0.00645947 0.0 
1.00129 -0.000581598 0.0 
0.308705 0.0281155 0.0 
1.07616 0.0894947 0.0 
0.982382 -0.0149002 0.0 
0.185237 -0.0261314 0.0 
0.275402 -0.0300902 0.0 
0.998903 -0.115117 0.0 
0.054352 -0.00678041 0.0 
0.998424 -0.00405126 0.0 
0.993992 0.00629565 0.0 
0.998888 0.000299122 0.0 
1.00085 0.00173301 0.0 
1.00248 0.00770618 0.0 
0.558817 0.0149002 0.0 
0.0790488 0.00281938 0.0 
0.99889 -0.00275033 0.0 
0.999993 3.60531e-05 0.0 
1.0037 -0.000113217 0.0 
0.156768 -0.0248706 0.0 
0.18366 0.00521102 0.0 
0.336072 0.00826766 0.0 
0.297422 -0.03276 0.0 
1.00388 -9.21513e-06 0.0 
-1.95513e-46 1.95883e-47 0.0 
0 0 0.0 
0.813817 0.145553 0.0 
0.0921043 0.0324206 0.0 
0.00235387 0.000123628 0.0 
0.707869 -0.0455716 0.0 
0.183891 0.00497765 0.0 
0.359759 -0.148291 0.0 
0.138335 0.0331872 0.0 
0 0 0.0 
-1.87655e-188 -4.83337e-190 0.0 
0.960142 -0.0391256 0.0 
0.964894 -0.325432 0.0 
1.00372 0 0.0 
1.00475 -0.0022064 0.0 
1.00001 -0.000154337 0.0 
0.379327 0.00889207 0.0 
0.433695 -0.0596976 0.0 
0.474032 0.0105762 0.0 
0.0130985 3.43305e-05 0.0 
1.00218 0 0.0 
1.00306 -0.00260363 0.0 
0 0 0.0 
1.00735 -0.0114892 0.0 
1.01786 0.0231981 0.0 
0.998016 0.0260592 0.0 
0.689649 -0.0135316 0.0 
1.00057 0.00139379 0.0 
0.0694208 -0.0030696 0.0 
1.00012 2.03056e-05 0.0 
0.0195493 -0.00407976 0.0 
0.928284 -0.147211 0.0 
0 0 0.0 
0.400179 0.0191088 0.0 
0.279614 -0.173045 0.0 
0.811481 0.109926 0.0 
0.787925 0.343754 0.0 
0.741835 -0.0227322 0.0 
0.423052 0.0063279 0.0 
0.199507 -0.0258167 0.0 
0 0 0.0 
0.997731 -0.00124428 0.0 
0.978101 0.0153088 0.0 
0.193538 0.0146255 0.0 
0.99996 -8.71734e-06 0.0 
0.9964 -0.0161131 0.0 
0.0887623 -0.00767174 0.0 
1.0023 0.00525335 0.0 
0.0365239 0.0462032 0.0 
1.05863 0.0580698 0.0 
1.0028 0.000144853 0.0 
0.00666335 -0.000604379 0.0 
0.894456 0.199169 0.0 
0.706872 0.0178341 0.0 
0 0 0.0 
1.00225 -0.00142913 0.0 
1.03828 -0.0457414 0.0 
0.999952 -4.30834e-05 0.0 
1.00011 0.0017699 0.0 
1.03603 0.215585 0.0 
0.999529 0.00085171 0.0 
1.00287 0.000277428 0.0 
1.01776 0.000257621 0.0 
1.02717 -0.0134169 0.0 
1.0008 0.00207942 0.0 
1.00388 -0.000804712 0.0 
0.0242832 -0.0024558 0.0 
0 0 0.0 
0.999935 0.000701341 0.0 
0.999669 0.000977797 0.0 
0 0 0.0 
0.000574457 -5.18516e-05 0.0 
1.01183 0.182988 0.0 
0.849088 -0.0262657 0.0 
0.253979 -0.171277 0.0 
0.80581 0.319882 0.0 
-1.70941e-302 7.21783e-304 0.0 
0.433906 0.202392 0.0 
0.0676591 -0.00579235 0.0 
0.0206377 -0.00497196 0.0 
0.999977 -0.00054219 0.0 
0 0 0.0 
1.02563 0.237977 0.0 
0.253822 -0.0502139 0.0 
-1.67862e-189 -2.40482e-189 0.0 
0 0 0.0 
0.999482 -0.0271102 0.0 
0 0 0.0 
1.00088 0.0059396 0.0 
1.00142 0.00183258 0.0 
0.999924 -3.28379e-07 0.0 
1.00011 0.000784287 0.0 
0.339652 0.0083672 0.0 
0 0 0.0 
0.199891 0.00513989 0.0 
0.712332 -0.000111646 0.0 
0.0092604 -0.00159348 0.0 
0.957533 0.030237 0.0 
0.999932 6.22227e-06 0.0 
0.798076 0.127314 0.0 
1.00047 -0.000697236 0.0 
0.963518 -0.284113 0.0 
1.00305 -0.00107883 0.0 
1.00058 0.000402646 0.0 
0.926005 -0.305955 0.0 
0.997445 -0.000659125 0.0 
0.999392 0.000768983 0.0 
1.00453 -0.00076719 0.0 
0.204304 0.00555139 0.0 
1.00001 -0.000167216 0.0 
1.00451 8.78096e-05 0.0 
1.00093 0.00181421 0.0 
0.999846 0.00045715 0.0 
0.470447 -0.0030492 0.0 
0 0 0.0 
0.998219 0.0227458 0.0 
1.00052 -0.00375272 0.0 
1.00023 0.000344274 0.0 
0.452365 -0.00904817 0.0 
0.99976 0.000722043 0.0 
1.00021 -0.000161268 0.0 
1.00933 0.00151829 0.0 
1.00898 0.0070459 0.0 
1.00006 -0.00143291 0.0 
0.901421 -0.00935253 0.0 
0.0867923 0.00238304 0.0 
-3.9519e-45 4.24931e-46 0.0 
0.647981 0.0147116 0.0 
0.70666 0.091257 0.0 
0.999963 7.49365e-05 0.0 
0.398701 0.00108521 0.0 
0.000812807 -5.53131e-05 0.0 
0.0809657 0.0458156 0.0 
0.348262 0.0229718 0.0 
0.942414 0.00487426 0.0 
0.331853 -0.0269421 0.0 
0.982225 -0.00138266 0.0 
0.0317586 -0.00208715 0.0 
1.00054 0.000709188 0.0 
0.276481 -0.328737 0.0 
1.01004 0.00576422 0.0 
1.00003 0.00029631 0.0 
1.00006 0.000555036 0.0 
0.996187 -0.0109228 0.0 
1.00509 0.00155571 0.0 
1.0266 0.0102147 0.0 
1.01846 0.00698028 0.0 
1.0362 0.150205 0.0 
1.00737 -0.0216875 0.0 
1.00385 6.97469e-05 0.0 
0.999705 -5.84099e-05 0.0 
0.999353 0.00015854 0.0 
1.03743 -0.0599188 0.0 
1.00513 -0.000167174 0.0 
0 0 0.0 
0.410742 -0.0121766 0.0 
0.99997 -2.34055e-05 0.0 
0.0418138 -0.00615743 0.0 
1.0202 0.0159342 0.0 
1.01185 0.222624 0.0 
0.993634 0.0598604 0.0 
1.00001 -4.29705e-05 0.0 
1.00047 0.000361969 0.0 
0.893077 -0.081699 0.0 
0.442982 -0.0185384 0.0 
0.338934 0.00445104 0.0 
0.981425 0.005257 0.0 
0.99801 -0.00147977 0.0 
1.0003 5.91287e-05 0.0 
1.0059 1.37574e-05 0.0 
0.905644 -0.0168093 0.0 
0.529619 0.016135 0.0 
0.16297 0.00405751 0.0 
1.00079 0.00255159 0.0 
1.00326 0.000226383 0.0 
0.239969 0.0242442 0.0 
0.994068 -0.000254962 0.0 
1.24714e-256 3.43238e-257 0.0 
0.275727 0.00737211 0.0 
1.00346 0.000158255 0.0 
0 0 0.0 
0.153501 -0.0285486 0.0 
1.00132 0.00479697 0.0 
1.00047 -0.00310912 0.0 
0.997701 0.00637879 0.0 
0.199226 -0.000759651 0.0 
0.00926231 -0.00174059 0.0 
0.209931 0.0186514 0.0 
0.869113 0.0319864 0.0 
1.00118 -0.00386575 0.0 
-4.6703e-48 2.84371e-49 0.0 
0.0394444 -0.0065824 0.0 
0.0320105 -0.017149 0.0 
0.834588 0.0191599 0.0 
1 -2.03573e-223 0.0 
0.822001 0.0694262 0.0 
0.0466863 0.00070648 0.0 
1.0052 0.00107816 0.0 
0.793707 -0.0299613 0.0 
0.739823 -0.0268869 0.0 
0.999976 6.0785e-05 0.0 
0.632494 -0.0506626 0.0 
1.00278 0.00556393 0.0 
1.01508 -0.0498967 0.0 
0.740649 0.0186049 0.0 
1.00796 0.0809376 0.0 
1.00002 8.84291e-05 0.0 
0 0 0.0 
1.00455 -0.00165585 0.0 
0 0 0.0 
0.999033 0.0042984 0.0 
1.00007 7.11936e-05 0.0 
0.999506 1.72262e-05 0.0 
1.00158 -0.000482141 0.0 
1.0096 0.00802072 0.0 
0.913566 -0.0236346 0.0 
0.0109403 0.00112412 0.0 
0.0290188 -0.00476288 0.0 
1.00235 -0.000344183 0.0 
1.00429 -0.00210721 0.0 
-5.12906e-48 2.1728e-49 0.0 
0.0194354 -0.00317701 0.0 
0.999926 8.18176e-06 0.0 
1.00128 -0.00034804 0.0 
0.161684 0.00421246 0.0 
0.0282467 0.000173042 0.0 
0.899837 0.0759083 0.0 
0.99992 4.60873e-05 0.0 
0.0283029 0.001073 0.0 
0.000101661 -3.48352e-05 0.0 
1.0047 0.00306428 0.0 
1.0021 0.000705859 0.0 
0.999987 -0.000830036 0.0 
0.945948 0.00082661 0.0 
1.00732 -0.00367851 0.0 
0.999878 2.01955e-05 0.0 
1.00013 -0.000194105 0.0 
0.802621 -0.0186785 0.0 
0.99974 -3.83593e-05 0.0 
0.999778 -0.000666846 0.0 
0.96076 0.0300749 0.0 
0.999994 0.00031925 0.0 
1.00232 -0.00321747 0.0 
1.00475 -0.000103811 0.0 
0.99961 0.00177777 0.0 
0.984693 0.0481685 0.0 
1.00025 8.38534e-05 0.0 
0 0 0.0 
0.883804 -0.0376679 0.0 
0.999795 5.81379e-05 0.0 
1.00379 0.00156894 0.0 
1.0001 4.77233e-05 0.0 
1.00112 0.000636075 0.0 
0.0437498 0.00134237 0.0 
1.00001 -0.000235059 0.0 
0.998996 -0.000360046 0.0 
0 0 0.0 
0.869094 0.0332703 0.0 
0.193921 -0.0225832 0.0 
1.00253 0.00653453 0.0 
1.00582 -0.00295037 0.0 
0.999927 2.80874e-05 0.0 
0.401723 0.0331812 0.0 
7.11151e-05 4.73893e-06 0.0 
1.00328 -0.000175134 0.0 
1.00231 0.00184656 0.0 
0.999967 0.00160237 0.0 
1.03425 -0.0259645 0.0 
1 0.00022494 0.0 
0.435961 0.0080811 0.0 
0.139786 0.0199847 0.0 
0.999957 4.4304e-05 0.0 
0.999647 3.1681e-05 0.0 
1.00277 0.000453331 0.0 
-1.36176e-132 3.8567e-135 0.0 
0.999879 -3.53493e-06 0.0 
1.00191 -0.000459341 0.0 
0.999926 1.41987e-05 0.0 
0.999887 -2.37348e-05 0.0 
0.015379 -0.00261897 0.0 
1.00011 0.000510269 0.0 
0.962571 0.129137 0.0 
1.00008 6.50153e-05 0.0 
0.999877 -3.27927e-05 0.0 
0.999918 2.61117e-05 0.0 
1.00004 -6.16196e-05 0.0 
1.00176 -0.00204897 0.0 
0.0160701 -0.000792034 0.0 
0.176257 -0.0426985 0.0 
0.995013 0.206336 0.0 
0.429493 -0.0390215 0.0 
0.999918 -8.24441e-06 0.0 
0.0156311 -0.00315191 0.0 
0.407227 0.00615318 0.0 
0.253681 -0.0117033 0.0 
1.00006 -0.00061075 0.0 
0.000232023 1.4002e-05 0.0 
0.999989 -5.1305e-05 0.0 
0.928992 -0.164192 0.0 
0.999909 1.873e-06 0.0 
0.818314 0.127173 0.0 
0.834786 0.119775 0.0 
0.03966 0.000760651 0.0 
0.999961 0.000212291 0.0 
1.00005 -0.000397639 0.0 
0.936947 -0.0285236 0.0 
0.876911 -0.0770442 0.0 
0.437159 -0.00070868 0.0 
1.00443 -0.00287216 0.0 
1.00125 -0.00624281 0.0 
0.999955 3.53488e-05 0.0 
1.00145 -0.000991885 0.0 
0.351804 -0.00683488 0.0 
1.00379 -0.00194301 0.0 
1.01273 -0.00228104 0.0 
1.00119 0.0158006 0.0 
0.963052 -0.0568015 0.0 
0.75847 -0.0342812 0.0 
0.999918 2.22524e-06 0.0 
1.00142 -0.00221742 0.0 
0.911675 0.0159097 0.0 
0.373636 0.0088222 0.0 
0.99889 -0.00343178 0.0 
0.35174 -0.00180431 0.0 
0.280186 0.0254892 0.0 
0.373667 -0.00225842 0.0 
1.00056 0.00028187 0.0 
1.00356 0.000818279 0.0 
1.00232 0.00258378 0.0 
0.789858 0.141524 0.0 
0.999806 -4.39372e-05 0.0 
1.00424 0.000438448 0.0 
1.00099 0.000927253 0.0 
0.99692 -9.9569e-05 0.0 
1.00222 0.00405946 0.0 
0.0386931 -0.00754939 0.0 
1.00007 -0.00020179 0.0 
0.363712 0.000882047 0.0 
0.841359 0.0154769 0.0 
1.00064 0.00052947 0.0 
0.798465 -0.000926944 0.0 
0.999837 -0.000232044 0.0 
0.997861 0.00418755 0.0 
0.880513 -0.0955337 0.0 
1.00001 -0.000121832 0.0 
-3.42658e-174 -1.61813e-175 0.0 