<VTKFile type="UnstructuredGrid" version="0.1" byte_order="LittleEndian">
  <UnstructuredGrid>
    <Piece NumberOfPoints="13914" NumberOfCells="27639">
      <Points>
        <DataArray type = "Float64" NumberOfComponents="3" format="ascii">
0 0 0.0 
14 0 0.0 
14 8 0.0 
0 8 0.0 
12.1753 3.5088 0.0 
3.99428 4.06423 0.0 
4.21841 4.01767 0.0 
2.86631 6.81702 0.0 
4.51938 4.00511 0.0 
0.382322 2.91093 0.0 
4.13177 4.05943 0.0 
4.80305 3.99786 0.0 
4.52111 4.01318 0.0 
4.04643 3.98022 0.0 
4.07057 3.9639 0.0 
4.53824 7.43039 0.0 
4.2188 4.04317 0.0 
3.98741 4.04054 0.0 
3.98768 4.02653 0.0 
6.74704 7.50701 0.0 
9.16151 6.19849 0.0 
4.2526 3.98687 0.0 
0.151059 5.05835 0.0 
4.00156 4.0058 0.0 
4.03498 4.02429 0.0 
4.67405 4.10923 0.0 
6.04319 7.63644 0.0 
4.80484 4.03022 0.0 
4.61584 4.00791 0.0 
4.52683 3.98228 0.0 
12.1265 0 0.0 
4.41203 4.0358 0.0 
4.09731 3.96439 0.0 
4.01846 3.98815 0.0 
4.20713 3.96252 0.0 
4.30378 3.98169 0.0 
4.13489 4.05432 0.0 
4.46839 4.03707 0.0 
4.01949 4.0195 0.0 
4.52391 3.99702 0.0 
10.4118 5.08662 0.0 
4.48435 4.03561 0.0 
0 3.36284 0.0 
4.74527 4.02561 0.0 
4.26833 4.04352 0.0 
4.421 4.01428 0.0 
4.21939 3.9751 0.0 
4.42684 4.02999 0.0 
4.0273 4.01367 0.0 
7.39132 0.561385 0.0 
4.0978 3.98523 0.0 
4.62342 4.01415 0.0 
4.31306 4.02997 0.0 
5.17517 4.1161 0.0 
4.01084 3.97813 0.0 
5.74284 3.89503 0.0 
4.01411 4.01149 0.0 
4.12607 4.05951 0.0 
7.55503 4.20213 0.0 
4.2483 4.03635 0.0 
4.81624 4.13542 0.0 
4.0955 3.94899 0.0 
4.03444 4.04627 0.0 
3.99086 4.07217 0.0 
4.00163 4.02959 0.0 
4.02005 3.99731 0.0 
5.23503 8 0.0 
4.30375 3.97965 0.0 
4.38566 3.98162 0.0 
4.39138 3.97846 0.0 
4.2349 3.9754 0.0 
4.94362 3.9337 0.0 
4.43221 3.99603 0.0 
5.35217 4.0931 0.0 
4.15961 3.98086 0.0 
4.11668 4.04201 0.0 
4.20523 3.96899 0.0 
11.1835 0.377067 0.0 
5.1201 4.07987 0.0 
0.899903 3.25578 0.0 
4.1429 4.0136 0.0 
4.24309 3.98945 0.0 
4.27067 4.04387 0.0 
4.04672 4.0202 0.0 
4.94501 3.90266 0.0 
5.2506 4.02924 0.0 
4.54772 3.97659 0.0 
3.96947 4.02134 0.0 
4.66668 4.00254 0.0 
7.16763 4.21956 0.0 
3.96297 3.96024 0.0 
9.58277 3.65337 0.0 
4.15932 4.03394 0.0 
4.47143 4.03456 0.0 
4.11692 3.94964 0.0 
4.21202 3.97069 0.0 
3.95785 3.95439 0.0 
4.06521 4.00008 0.0 
4.02972 4.04518 0.0 
4.09422 4.58682 0.0 
4.47616 4.01651 0.0 
3.97141 4.03046 0.0 
4.01787 3.95968 0.0 
3.97561 4.03322 0.0 
3.97816 4.02179 0.0 
4.04633 4.03304 0.0 
3.96767 4.02507 0.0 
4.53971 3.97638 0.0 
1.36116 1.78512 0.0 
3.97586 4.01385 0.0 
4.54225 3.97864 0.0 
4.18335 3.97495 0.0 
8.79181 7.69132 0.0 
4.33081 4.03762 0.0 
4.54991 3.98013 0.0 
4.01876 4.02231 0.0 
4.39691 4.01185 0.0 
4.17138 4.04945 0.0 
3.04298 2.00142 0.0 
4.73521 7.52615 0.0 
4.02874 4.02049 0.0 
4.00535 3.95189 0.0 
13.4653 0.705634 0.0 
4.29791 4.01473 0.0 
4.21259 3.97823 0.0 
5.99716 3.78566 0.0 
4.06171 3.97809 0.0 
4.40086 3.98048 0.0 
4.11581 4.05249 0.0 
4.07788 4.03518 0.0 
4.5464 4.00885 0.0 
4.04721 3.98477 0.0 
4.47528 4.04499 0.0 
4.25483 4.0441 0.0 
4.8328 4.09852 0.0 
4.10117 3.96057 0.0 
4.06273 4.0668 0.0 
8.08613 4.98413 0.0 
4.30004 3.97508 0.0 
4.3122 4.03809 0.0 
6.37297 2.73989 0.0 
6.50541 6.65271 0.0 
4.0914 3.96216 0.0 
10.358 3.36045 0.0 
4.06962 3.97575 0.0 
5.54064 4.1533 0.0 
4.78102 3.89235 0.0 
0 1.32548 0.0 
12.6474 3.41509 0.0 
4.05312 3.99197 0.0 
13.7435 8 0.0 
4.11702 4.02719 0.0 
6.67367 0 0.0 
4.0005 3.94996 0.0 
5.20271 3.96489 0.0 
5.18643 3.7868 0.0 
13.7283 2.46074 0.0 
4.03874 3.11132 0.0 
11.9791 3.59953 0.0 
5.25615 4.08216 0.0 
4.10061 3.98518 0.0 
3.63147 3.86607 0.0 
4.11054 3.95071 0.0 
6.22735 7.50315 0.0 
5.96698 3.88015 0.0 
4.42841 4.03698 0.0 
4.50702 4.02602 0.0 
4.00932 4.01975 0.0 
8.95603 7.57132 0.0 
5.14413 4.10334 0.0 
4.16937 4.04399 0.0 
3.98122 4.01031 0.0 
11.5703 4.18823 0.0 
4.0676 3.97376 0.0 
14 7.50934 0.0 
4.178 4.03035 0.0 
4.2529 3.98548 0.0 
4.23208 4.07447 0.0 
11.3934 4.07618 0.0 
12.282 6.14857 0.0 
4.50642 4.02325 0.0 
4.54778 4.01674 0.0 
4.08927 3.9549 0.0 
4.11259 3.98579 0.0 
4.22147 4.0961 0.0 
6.6627 2.29498 0.0 
4.01369 3.97538 0.0 
4.05761 3.9979 0.0 
4.09428 3.96323 0.0 
4.41135 3.99533 0.0 
4.03239 3.93948 0.0 
4.31372 3.99296 0.0 
4.33078 4.04077 0.0 
4.04583 4.33672 0.0 
4.23012 3.94227 0.0 
5.08783 3.97242 0.0 
4.23894 4.04447 0.0 
12.0372 1.49526 0.0 
4.50172 4.01695 0.0 
4.5205 3.97955 0.0 
10.4619 3.53679 0.0 
4.39789 4.02787 0.0 
4.1799 3.98669 0.0 
5.11499 3.91409 0.0 
0 1.05349 0.0 
0.255049 4.91366 0.0 
6.38052 3.13775 0.0 
5.9291 5.15993 0.0 
4.06497 4.00808 0.0 
0.21871 6.38507 0.0 
9.4176 1.73395 0.0 
14 0.786378 0.0 
4.24337 4.04693 0.0 
4.20501 3.97964 0.0 
4.18823 4.05414 0.0 
4.00011 4.0245 0.0 
5.18849 4.16425 0.0 
8.35832 2.9685 0.0 
13.4699 7.45697 0.0 
4.45511 3.99722 0.0 
4.01229 3.97705 0.0 
4.06076 3.97364 0.0 
5.08968 4.06272 0.0 
4.13566 3.98542 0.0 
4.09808 4.03387 0.0 
4.02022 3.98429 0.0 
4.00577 3.97873 0.0 
4.46979 4.03982 0.0 
13.0308 3.29431 0.0 
4.19329 3.98724 0.0 
4.18338 3.96998 0.0 
7.62224 2.88267 0.0 
7.22419 0.703495 0.0 
13.6419 7.13939 0.0 
4.43321 4.47587 0.0 
4.54931 4.03684 0.0 
4.05629 4.04137 0.0 
4.15182 4.0426 0.0 
5.282 3.91625 0.0 
5.8599 3.0813 0.0 
3.85188 3.15829 0.0 
4.18917 3.97999 0.0 
4.14651 3.99643 0.0 
4.51941 3.99978 0.0 
4.09504 3.9833 0.0 
4.42006 4.03148 0.0 
4.6103 3.91602 0.0 
4.01151 3.88232 0.0 
4.53314 3.99816 0.0 
4.48184 4.00685 0.0 
4.11575 4.03408 0.0 
4.06456 4.03311 0.0 
4.20274 4.07949 0.0 
4.19996 3.98886 0.0 
12.5015 1.14918 0.0 
4.09797 3.95385 0.0 
4.23052 4.09368 0.0 
4.20868 4.08388 0.0 
4.00485 3.95979 0.0 
5.30372 4.3411 0.0 
5.23408 3.94742 0.0 
3.97414 4.04859 0.0 
4.51537 4.02923 0.0 
4.05749 4.03196 0.0 
4.55049 4.00816 0.0 
4.35587 4.01713 0.0 
3.96367 4.04432 0.0 
4.40046 4.03249 0.0 
6.70909 6.94059 0.0 
12.8262 0.365959 0.0 
8.82235 8 0.0 
4.1403 4.03691 0.0 
8.0467 4.55181 0.0 
4.2355 4.09935 0.0 
4.18917 4.08849 0.0 
4.05954 4.04241 0.0 
4.01302 3.99088 0.0 
4.08076 4.03608 0.0 
4.06329 4.04721 0.0 
5.23123 4.10539 0.0 
4.18805 3.96826 0.0 
4.00498 4.00961 0.0 
4.23245 4.06966 0.0 
4.12473 3.7959 0.0 
0.417479 6.31883 0.0 
4.69269 3.91129 0.0 
6.95962 7.64891 0.0 
5.30305 4.06066 0.0 
4.12519 4.00395 0.0 
4.55293 4.00058 0.0 
3.97018 4.04275 0.0 
4.05351 4.1101 0.0 
4.57553 4.01147 0.0 
3.99155 4.04247 0.0 
3.99093 4.05263 0.0 
3.98858 4.04648 0.0 
3.97296 4.00674 0.0 
11.3714 7.19716 0.0 
9.192 5.81999 0.0 
3.9757 3.93339 0.0 
3.53429 0 0.0 
4.67134 3.89044 0.0 
4.57278 4.01593 0.0 
11.016 2.69137 0.0 
2.30378 3.03595 0.0 
4.01703 7.79668 0.0 
4.08952 4.02996 0.0 
7.40997 8 0.0 
4.02321 3.97317 0.0 
2.86414 6.59491 0.0 
3.99823 4.07135 0.0 
4.06419 4.05585 0.0 
2.0145 6.16839 0.0 
4.9441 3.98308 0.0 
4.15863 3.96028 0.0 
6.78993 2.13526 0.0 
6.95076 5.01827 0.0 
0.846754 0.565038 0.0 
4.32637 4.10272 0.0 
6.35937 4.45823 0.0 
4.38638 4.01447 0.0 
1.2142 8 0.0 
7.59973 7.22298 0.0 
12.6277 1.80732 0.0 
14 4.58149 0.0 
5.85073 0.410811 0.0 
13.0902 7.46595 0.0 
4.62463 3.98262 0.0 
4.02912 3.96643 0.0 
3.9878 3.95947 0.0 
4.22308 4.09104 0.0 
6.29371 4.66465 0.0 
4.51303 3.98607 0.0 
4.41335 3.97802 0.0 
3.96066 4.00697 0.0 
4.44668 4.3145 0.0 
4.52146 4.0109 0.0 
13.1661 5.68046 0.0 
13.7895 0 0.0 
4.10795 4.02897 0.0 
4.96192 4.01968 0.0 
11.4357 2.10385 0.0 
7.97633 2.05223 0.0 
5.45655 5.22818 0.0 
4.00791 4.0033 0.0 
4.0088 3.9805 0.0 
9.75515 2.36072 0.0 
4.68883 3.98216 0.0 
10.4908 7.41058 0.0 
4.02947 3.97325 0.0 
5.13536 4.03985 0.0 
4.6454 3.91884 0.0 
4.34891 4.01247 0.0 
4.01129 4.00596 0.0 
3.27981 4.42349 0.0 
3.99205 4.13448 0.0 
4.43378 4.00005 0.0 
2.3455 6.64237 0.0 
4.01755 3.97046 0.0 
2.02311 6.41626 0.0 
4.4101 3.99464 0.0 
8.40952 2.0809 0.0 
4.05712 4.02645 0.0 
4.53752 3.98766 0.0 
4.6633 4.02929 0.0 
4.53106 4.00741 0.0 
4.05373 4.0206 0.0 
4.0593 4.0207 0.0 
4.94232 3.97099 0.0 
4.52442 4.04136 0.0 
4.11868 3.97589 0.0 
4.15516 3.94365 0.0 
4.21078 3.98014 0.0 
4.01683 3.96357 0.0 
8.32777 8 0.0 
4.19264 4.05366 0.0 
4.05396 4.05232 0.0 
7.30223 3.17861 0.0 
4.27573 3.98837 0.0 
4.2204 3.98714 0.0 
4.00437 3.9841 0.0 
4.8842 3.98016 0.0 
4.0134 3.97877 0.0 
3.03193 6.72582 0.0 
4.58476 4.49756 0.0 
4.01079 3.9893 0.0 
2.61514 0.506135 0.0 
4.36156 4.08272 0.0 
4.01115 4.24681 0.0 
4.42985 3.97318 0.0 
4.90829 4.0036 0.0 
4.05907 4.0108 0.0 
2.5098 3.59854 0.0 
4.21036 4.03335 0.0 
1.97176 2.13711 0.0 
4.21732 4.03352 0.0 
4.53888 4.02662 0.0 
11.5792 7.84461 0.0 
0.551344 1.2516 0.0 
4.02575 3.96118 0.0 
3.59914 3.72372 0.0 
4.51361 4.00588 0.0 
4.00239 3.93806 0.0 
4.17925 4.0422 0.0 
5.88331 4.05379 0.0 
11.3713 7.83957 0.0 
3.92397 4.08292 0.0 
4.06752 4.08932 0.0 
11.8351 6.74811 0.0 
7.58471 5.24477 0.0 
4.1127 3.96242 0.0 
4.32046 1.78584 0.0 
4.15116 3.93854 0.0 
4.13176 4.07898 0.0 
10.2186 2.28825 0.0 
4.12697 3.98533 0.0 
5.26415 4.01251 0.0 
4.01419 3.92205 0.0 
4.14091 4.04918 0.0 
4.00279 3.99128 0.0 
4.05385 4.00986 0.0 
4.85809 4.01513 0.0 
4.36932 4.07625 0.0 
4.97511 3.97459 0.0 
6.32476 7.00417 0.0 
12.5996 5.63737 0.0 
4.00964 3.98933 0.0 
4.19855 4.03407 0.0 
4.16112 4.02728 0.0 
3.99474 4.00051 0.0 
3.8771 3.99789 0.0 
4.35954 3.98946 0.0 
4.20862 3.97868 0.0 
11.5808 3.97719 0.0 
4.98706 3.92999 0.0 
4.66884 4.01237 0.0 
4.55144 4.02802 0.0 
3.96806 4.01296 0.0 
11.0968 5.75296 0.0 
6.49741 5.21617 0.0 
4.00988 3.97037 0.0 
4.73136 4.01386 0.0 
3.93139 3.94848 0.0 
4.61113 4.96963 0.0 
4.5467 4.03146 0.0 
4.35225 4.0089 0.0 
1.03284 2.15008 0.0 
3.96376 4.05355 0.0 
7.20657 5.05296 0.0 
3.05391 4.40989 0.0 
9.11333 4.20632 0.0 
4.42163 3.97508 0.0 
4.55048 3.99982 0.0 
3.10914 5.59568 0.0 
0.762216 5.13111 0.0 
0.198711 3.79297 0.0 
4.72583 0.194576 0.0 
7.52795 3.93602 0.0 
4.53584 4.04123 0.0 
13.067 7.81526 0.0 
4.11285 3.99694 0.0 
5.30927 0.171783 0.0 
4.41976 4.02812 0.0 
4.20733 3.987 0.0 
4.53311 4.01513 0.0 
4.73668 3.89169 0.0 
4.19026 3.98843 0.0 
3.96886 4.00175 0.0 
4.05849 4.07782 0.0 
3.31161 1.01031 0.0 
4.53497 4.00659 0.0 
13.4868 6.98364 0.0 
4.05103 4.00091 0.0 
4.82507 4.1106 0.0 
4.76327 3.98311 0.0 
[...]
<PointData>
  <DataArray type = "Float64" Name="Vitesse" NumberOfComponents="3" format="ascii">
1 0 0.0 
1.00022 0 0.0 
0.999868 0 0.0 
1 0 0.0 
0.999878 0.000347278 0.0 
0.87046 0.199702 0.0 
0 0 0.0 
1.00237 0.00197422 0.0 
-1.13676e-127 2.04161e-128 0.0 
0.99997 -0.000128614 0.0 
0.733627 0.0932328 0.0 
0.329759 0.00652955 0.0 
0.0181973 -0.00317778 0.0 
0.374461 -0.0380503 0.0 
0.875469 -0.094061 0.0 
1.00485 0.000487746 0.0 
2.135e-05 5.8706e-07 0.0 
0.775485 0.197375 0.0 
0.683793 0.189248 0.0 
1.00371 -0.000667233 0.0 
1.00005 -0.00124122 0.0 
0.0726278 0.00181536 0.0 
0.999998 0.000128913 0.0 
0.0365005 0.0460917 0.0 
0.0924694 0.0327326 0.0 
0.963091 -0.0466651 0.0 
1.00454 -0.000348209 0.0 
0.378513 -0.0177256 0.0 
0.119479 -0.00169764 0.0 
0.256617 0.00734091 0.0 
1.00049 0 0.0 
0.0917865 -0.0104036 0.0 
0.738183 -0.0453513 0.0 
0.179259 -0.0442535 0.0 
0.576891 -0.000552835 0.0 
0.18673 0.00484371 0.0 
0.542207 0.0603919 0.0 
0.165058 -0.0185852 0.0 
0.205621 0.10053 0.0 
0.0316781 0.000947962 0.0 
0.999214 -0.000198988 0.0 
0.16382 -0.0188491 0.0 
1 0 0.0 
0.307544 -0.0159929 0.0 
0.0370566 -0.00322489 0.0 
-5.26892e-286 4.17433e-287 0.0 
0.296827 0.00593459 0.0 
0.0455953 -0.00583166 0.0 
0 0 0.0 
1.00388 0.000507292 0.0 
0.0264748 0.000801238 0.0 
0.134325 -0.00994644 0.0 
0 0 0.0 
0.950057 -0.0178656 0.0 
0.916609 -0.350694 0.0 
0.933468 0.00526651 0.0 
-1.6224e-206 -8.45413e-207 0.0 
0.76541 0.105454 0.0 
0.982549 -0.0127551 0.0 
0 0 0.0 
1.0043 -0.0327478 0.0 
1.03297 -0.0966636 0.0 
0.926868 0.316203 0.0 
0.885288 0.181902 0.0 
0.721478 0.308962 0.0 
0 0 0.0 
1.00487 0 0.0 
0.222938 0.00556543 0.0 
0.2147 0.00595501 0.0 
0.266452 0.00681365 0.0 
0.290691 0.00572849 0.0 
0.81612 0.0190785 0.0 
0.013623 0.00144813 0.0 
0.877871 -0.0150801 0.0 
0.159362 0.00445576 0.0 
0.111569 0.0122342 0.0 
0.434618 0.00340731 0.0 
1.00077 0.000151391 0.0 
0.810446 -0.0205266 0.0 
0.999774 -0.000191276 0.0 
0 0 0.0 
0.0197844 -0.0011618 0.0 
0.0475989 -0.00335524 0.0 
0 0 0.0 
0.950817 0.0173577 0.0 
0.569957 -0.00798174 0.0 
0.350388 0.0152365 0.0 
0.726543 0.0675591 0.0 
0.195843 0.00599861 0.0 
0.996988 -0.0142599 0.0 
0.860297 -0.137174 0.0 
0.998207 0.00204008 0.0 
0 0 0.0 
0.139862 -0.016498 0.0 
0.981835 -0.0676262 0.0 
0.394095 0.00467855 0.0 
0.874925 -0.124626 0.0 
0 0 0.0 
0.914544 0.323886 0.0 
1.02064 0.0276585 0.0 
5.90795e-05 -7.41668e-06 0.0 
0.751437 0.107139 0.0 
1.01054 -0.26311 0.0 
0.752079 0.131429 0.0 
0.687522 0.105022 0.0 
0.436808 0.135053 0.0 
0.745019 0.0770314 0.0 
0.348934 0.0126092 0.0 
1.00012 -0.000797089 0.0 
0.66641 0.0455494 0.0 
0.318112 0.012111 0.0 
0.30367 0.00451771 0.0 
1.00109 -0.000278492 0.0 
0.0128113 -0.000492335 0.0 
0.301484 0.0142741 0.0 
0.43216 0.205248 0.0 
0 0 0.0 
0.218152 0.00996237 0.0 
1.00145 -0.00311348 0.0 
1.00493 0.000287277 0.0 
0 0 0.0 
0.962393 -0.231128 0.0 
1.00025 7.27422e-05 0.0 
0 0 0.0 
0.229275 0.00508239 0.0 
1.0057 0.0044016 0.0 
0.379779 -0.027079 0.0 
0.237736 0.00597209 0.0 
0.586508 0.0846923 0.0 
0.0773571 0.0156778 0.0 
0.0187324 -0.00390194 0.0 
0.0947442 -0.00483781 0.0 
0.270534 -0.0264645 0.0 
0.0344844 0.000159062 0.0 
0.901451 -0.0349135 0.0 
0.826711 -0.0549476 0.0 
1.03257 0.255297 0.0 
0.99848 -0.00431094 0.0 
0.304299 0.00661837 0.0 
0.000380561 -2.76348e-05 0.0 
1.00699 0.00231187 0.0 
1.00439 -0.00197853 0.0 
0.824347 -0.0623856 0.0 
0.999435 0.00116595 0.0 
0.446037 -0.0306182 0.0 
0.996377 -0.012947 0.0 
0.990151 0.0221039 0.0 
1 0 0.0 
0.999941 0.000273866 0.0 
0 0 0.0 
0.999869 0 0.0 
0 0 0.0 
1.00435 0 0.0 
0.948531 -0.218654 0.0 
0.645746 0.0105132 0.0 
1.01066 0.00830416 0.0 
1.00009 0.000153171 0.0 
1.00765 -0.0130689 0.0 
0.999833 0.000373223 0.0 
0.828751 -0.0179962 0.0 
0.025614 -0.00275064 0.0 
0.972291 -0.0108559 0.0 
0.982573 -0.0721351 0.0 
1.00439 -0.000546816 0.0 
0.95527 0.00488105 0.0 
0.123362 -0.0135345 0.0 
0.0917402 -0.0125605 0.0 
0.531061 0.305717 0.0 
1.00092 -0.000362818 0.0 
0.913149 -0.0193746 0.0 
0.0313259 -0.0021635 0.0 
0.605953 0.0335011 0.0 
0.999641 0.000310142 0.0 
0.543232 -0.0433444 0.0 
0.999867 3.82972e-07 0.0 
0 0 0.0 
0.0981517 0.00262546 0.0 
0.808702 0.0264144 0.0 
0.999598 0.000372536 0.0 
0.999803 -1.57066e-05 0.0 
0.0689166 -0.0099252 0.0 
0.0614909 -0.0122079 0.0 
0.980495 -0.0920334 0.0 
0.000999069 7.0739e-05 0.0 
1.08962 0.0646692 0.0 
1.00586 0.00203561 0.0 
0.951061 -0.328847 0.0 
0 0 0.0 
0.78344 -0.0537135 0.0 
0.0145757 0.000909839 0.0 
1.03663 -0.189464 0.0 
0.000801472 8.5248e-05 0.0 
0.0633836 -0.00476873 0.0 
1.01964 0.058518 0.0 
0.900481 -0.016247 0.0 
0.582951 0.00990897 0.0 
0.0316472 -0.00240993 0.0 
1.00035 0.000335245 0.0 
0.0222892 -0.00368543 0.0 
0.293672 0.00811904 0.0 
0.999357 0.000986413 0.0 
0 0 0.0 
0.0347115 0.00322682 0.0 
0.905055 0.0132343 0.0 
1 0 0.0 
0.999989 0.000204401 0.0 
1.00775 0.0026742 0.0 
1.00827 -0.00619982 0.0 
0 0 0.0 
1.00001 0.000164508 0.0 
1.00142 0.00155355 0.0 
1.0002 5.74858e-05 0.0 
0.0973082 -0.00257584 0.0 
0.197583 0.00463514 0.0 
0.346168 0.0153173 0.0 
0.661855 0.310589 0.0 
1.0071 -0.0170956 0.0 
1.00154 0.00504499 0.0 
0.999866 -8.01034e-07 0.0 
0.00888171 0.000690172 0.0 
0.931189 -0.338969 0.0 
0.591684 -0.0561204 0.0 
0.70645 -0.0197266 0.0 
0.0337314 -0.00086779 0.0 
0 0 0.0 
0.474754 -0.121525 0.0 
0.896304 -0.385097 0.0 
0.199257 -0.0213648 0.0 
0.999982 0.000226134 0.0 
0.0336791 0.000565122 0.0 
0.42347 0.00233301 0.0 
1.00477 0.00448544 0.0 
1.00407 0.000604267 0.0 
0.999865 1.51404e-06 0.0 
1.0397 0.00850909 0.0 
0.236852 -0.0305984 0.0 
0.693067 0.185679 0.0 
2.79163e-05 1.69024e-06 0.0 
0.886431 0.0105662 0.0 
1.00848 0.00234647 0.0 
1.00387 -0.0138291 0.0 
0.186301 0.00469168 0.0 
-4.60379e-282 -4.90023e-283 0.0 
1.74789e-46 6.41858e-48 0.0 
0.0878155 -0.000320495 0.0 
0.0529886 -0.00684875 0.0 
0.952436 0.0272597 0.0 
0.998069 -0.115166 0.0 
0.01548 0.000158871 0.0 
2.58623e-246 -2.99526e-247 0.0 
0 0 0.0 
0.141418 0.0286537 0.0 
0.95415 0.0616452 0.0 
0.00246037 5.99425e-05 0.0 
1.00033 0.000206548 0.0 
0.970306 -0.0813239 0.0 
1.06704 0.0550765 0.0 
1.00345 0.0627668 0.0 
0.95091 -0.26271 0.0 
1.01286 -0.0125937 0.0 
0.744718 0.0112864 0.0 
0.812779 0.145205 0.0 
0.128508 -0.0165439 0.0 
0.167607 0.0301297 0.0 
0.0198117 -0.00484241 0.0 
0 0 0.0 
0.810556 0.10966 0.0 
0.039828 -0.00608093 0.0 
1.00388 -0.0015367 0.0 
1.00034 5.7438e-05 0.0 
1.00109 0 0.0 
0 0 0.0 
0.999104 -0.00409968 0.0 
1.09332 0.0560541 0.0 
1.07389 0.0899838 0.0 
0.693325 0.179359 0.0 
9.62219e-05 -2.9687e-05 0.0 
0.0961102 0.0224814 0.0 
0.817796 0.210234 0.0 
0.919617 -0.0183708 0.0 
0.461505 0.00163849 0.0 
0.070065 0.0587917 0.0 
0.701548 0.0180622 0.0 
1.03612 -0.0597622 0.0 
1.00003 0.000329778 0.0 
0.952992 0.0288492 0.0 
1.00339 -0.000485553 0.0 
0.723409 -0.014106 0.0 
0 0 0.0 
4.27288e-50 -2.2906e-52 0.0 
0.79714 0.126967 0.0 
1.01665 0.183057 0.0 
0.0587042 -0.0183595 0.0 
0.787886 0.217493 0.0 
0.830923 0.203992 0.0 
0.803976 0.200183 0.0 
0.676099 -0.0139625 0.0 
0.999917 -9.32714e-05 0.0 
0.999634 -0.00136562 0.0 
0.92748 -0.147019 0.0 
1.00252 0 0.0 
1.01115 0.0245906 0.0 
0.0748457 -0.0242099 0.0 
1.00005 0.000832765 0.0 
0.998525 -0.00194904 0.0 
1.00407 0.00026842 0.0 
0 0 0.0 
1.00274 0 0.0 
0.950898 -0.259166 0.0 
1.00236 0.0024078 0.0 
0.893314 0.199125 0.0 
0.977791 0.252313 0.0 
1.00079 0.00211773 0.0 
0.477594 0.0107975 0.0 
0.687956 -0.0138661 0.0 
1.00549 0.00194367 0.0 
1.00279 -0.00777796 0.0 
1.00012 -0.000174045 0.0 
1.04941 0.0034427 0.0 
1.00727 -0.0110186 0.0 
0 0 0.0 
1.00041 0 0.0 
1.00242 -0.00107716 0.0 
1.00022 0.00026724 0.0 
0.99992 7.62767e-05 0.0 
1.00467 -7.84613e-07 0.0 
0.999866 -4.03376e-06 0.0 
0.301377 0.0275752 0.0 
1.02171 -0.245101 0.0 
0.887466 -0.217293 0.0 
1.05565 0.0582793 0.0 
1.0072 -0.00962515 0.0 
0.194279 0.00477612 0.0 
0.280017 0.00679303 0.0 
0.748148 -0.012595 0.0 
1.05893 0.0020104 0.0 
0.00797225 -0.00138887 0.0 
0.999843 4.00594e-05 0.0 
1.00024 0 0.0 
0 0 0.0 
0.428568 -0.00834635 0.0 
1.00028 0.000598035 0.0 
1.00342 0.00260462 0.0 
1.01072 -0.00435624 0.0 
0 0 0.0 
0.878892 -0.367418 0.0 
1.00061 0.00179005 0.0 
0.350415 0.023246 0.0 
1.00009 -0.00016773 0.0 
0.899825 -0.20868 0.0 
0.580903 -0.0132762 0.0 
0.929845 0.029613 0.0 
0 0 0.0 
0 0 0.0 
0.992001 0.0102567 0.0 
0.961685 0.129794 0.0 
-4.44393e-123 -3.22863e-124 0.0 
1.00143 0.00188428 0.0 
0.995365 -0.302368 0.0 
1.00093 0.0018511 0.0 
0.0252229 0.000292914 0.0 
1.00261 0.00261795 0.0 
-1.01341e-213 -2.91211e-214 0.0 
0.182501 0.00540694 0.0 
0.256453 -0.0232878 0.0 
0.00166047 -0.000212982 0.0 
0 0 0.0 
0 0 0.0 
0.553925 0.0148116 0.0 
0.267536 -0.028921 0.0 
0.314661 -0.00216573 0.0 
0.980381 -0.0463338 0.0 
0.188284 0.0044373 0.0 
1.00681 -0.280818 0.0 
1.00159 0 0.0 
0.321222 0.0119857 0.0 
0.962571 0.272293 0.0 
1.00635 0.00454695 0.0 
0.0571911 0.00184795 0.0 
0.0510965 0.00319503 0.0 
0.805628 -0.413498 0.0 
0.47016 0.014097 0.0 
0.892999 -0.319001 0.0 
1.0027 0.00222982 0.0 
1.03413 -0.00224142 0.0 
0.3131 -0.112666 0.0 
1.00134 -0.000561361 0.0 
0.825568 -0.022089 0.0 
1.00738 0.0815967 0.0 
0.35873 0.00838391 0.0 
0.385297 0.00119608 0.0 
0 0 0.0 
0.99646 -0.00101769 0.0 
0 0 0.0 
1.00008 -0.00151521 0.0 
0 0 0.0 
0.126515 -0.0183632 0.0 
0.999935 -1.60129e-05 0.0 
1.00004 -0.000225451 0.0 
1.03706 -0.253047 0.0 
0.982038 -0.0146825 0.0 
-4.03681e-130 -8.97674e-132 0.0 
0.966322 -0.189383 0.0 
1.90679e-51 2.68184e-52 0.0 
0.762773 -0.00867228 0.0 
0.999957 -2.12767e-05 0.0 
0.898846 0.0759991 0.0 
1.04142 0.213071 0.0 
0.999845 -6.65871e-05 0.0 
1.00064 -0.00533516 0.0 
0.740903 -0.0366331 0.0 
1.0049 -0.00279113 0.0 
1.02997 -0.0557062 0.0 
1.07287 0.153888 0.0 
1.00045 0.00132302 0.0 
0.0309217 0.00258474 0.0 
0.53714 -0.00343697 0.0 
0.996699 -0.162269 0.0 
0.307183 0.0282207 0.0 
0.500318 -0.352484 0.0 
0 0 0.0 
0.355323 -0.00605405 0.0 
0.724051 -0.0259354 0.0 
0.539105 0.0131249 0.0 
1.0045 -0.0012584 0.0 
0.999804 3.59141e-05 0.0 
0.361368 -0.149515 0.0 
0 0 0.0 
0 0 0.0 
0.280108 -0.173652 0.0 
0.900644 -0.00927375 0.0 
0.0817537 0.00168277 0.0 
0.218792 0.00487792 0.0 
0.999672 0.00036983 0.0 
0.837287 0.017704 0.0 
0.187094 -0.00493045 0.0 
0.150432 -0.0240852 0.0 
0.714422 0.0220869 0.0 
0.999645 -0.000147469 0.0 
1.0054 -0.00669347 0.0 
0.964232 -0.325102 0.0 
0.252926 -0.00580858 0.0 
0.892389 -0.0816113 0.0 
1.01806 0.0027999 0.0 
0.178667 -0.0252448 0.0 
0 0 0.0 
0.999981 -0.000586811 0.0 
0.833769 0.119559 0.0 
1.00164 -0.00702959 0.0 
0.993831 0.00669232 0.0 
0.994722 2.63195e-05 0.0 
0.327707 0.0078298 0.0 
0.000125652 4.04785e-06 0.0 
1.00234 0.00572204 0.0 
0.99993 0.000696734 0.0 
0.999992 3.10851e-05 0.0 
1.00407 -0.000192996 0.0 
0.937371 0.00424426 0.0 
0.275518 -0.0306732 0.0 
0.99987 -1.86993e-06 0.0 
0 0 0.0 
1.0045 -8.36695e-05 0.0 
0.0202451 -0.00231976 0.0 
0.0457194 0.00261318 0.0 
0.0383561 -0.00651847 0.0 
0.997503 0.0241774 0.0 
0.010114 0.000672764 0.0 
0.707444 -0.0456753 0.0 
1.02805 0.237355 0.0 
1.00227 -0.00143753 0.0 
0.00159128 -0.000252188 0.0 
0.999863 1.8985e-06 0.0 
0 0 0.0 
0.949533 -0.0349726 0.0 
0.388119 0.0181544 0.0 
1.02656 -0.00957252 0.0 
1.00001 -0.000163282 0.0 
0.999943 -0.000106129 0.0 
0 0 0.0 
0.977644 0.0157483 0.0 
0.0687142 0.0860792 0.0 
1.00345 0 0.0 
1.00503 -0.00251558 0.0 
0.191469 0.0134519 0.0 
1.01091 -0.00765601 0.0 
1.01627 0.0216907 0.0 
0.0852345 0.0176845 0.0 
0.0124997 0.00108055 0.0 
1.00057 0.00141018 0.0 
0.0210278 -0.00076758 0.0 
1.00023 5.12523e-05 0.0 
1.00077 0.00260272 0.0 
0.0435493 -0.00266006 0.0 
0 0 0.0 
0.408971 0.00586911 0.0 
0.16297 0.00378821 0.0 
1.00952 -0.0113043 0.0 
0.785792 0.342676 0.0 
1.00448 -0.00101993 0.0 
0.0290476 -0.00214855 0.0 
0.192748 -0.0249512 0.0 
-1.77805e-136 3.24979e-138 0.0 
0 0 0.0 
0.0879152 -0.00835761 0.0 
0.999129 -0.0270939 0.0 
1.00534 0.000592208 0.0 
0.200464 -0.0113799 0.0 
0.999909 0.00018262 0.0 
0.278283 -0.329372 0.0 
0 0 0.0 
0.999871 2.49586e-05 0.0 
1.00405 0.000119467 0.0 
0.971839 0.158522 0.0 
0.2535 -0.175233 0.0 
-2.73922e-86 4.72143e-87 0.0 
0.817918 -0.0225206 0.0 
1.00527 -0.011537 0.0 
1.00184 0.00348471 0.0 
0.847019 0.192377 0.0 
0.99915 0.00267662 0.0 
1.00412 0.000222823 0.0 
1.00058 0.000408109 0.0 
0.00490752 0.000519035 0.0 
1.00413 -0.0011604 0.0 
0.997604 0.00673972 0.0 
1.00326 -0.00496756 0.0 
0.0856466 0.00384464 0.0 
0.999662 0.00276215 0.0 
1 0 0.0 
0.999352 -0.000251552 0.0 
0.944306 -0.014894 0.0 
0.999571 0.00197285 0.0 
0.803919 0.318938 0.0 
0.992966 0.0606815 0.0 
0.0817413 0.0462274 0.0 
1.00346 -0.000234111 0.0 
0.469 -0.00299898 0.0 
0 0 0.0 
0.0273936 -0.00468705 0.0 
0.254981 -0.0496524 0.0 
1.00105 0.000716381 0.0 
0.0185578 8.16774e-05 0.0 
0.997813 0.0237155 0.0 
0.420821 -0.0170383 0.0 
0.00527465 -0.000755734 0.0 
0.694456 0.000987163 0.0 
1.00011 0.000789147 0.0 
1.00734 -0.00447739 0.0 
0.998799 -0.000225549 0.0 
0.130586 0.0112828 0.0 
0.0311675 0.004252 0.0 
1.0023 -0.000490819 0.0 
1.00639 -0.000882404 0.0 
1.00112 -0.00121155 0.0 
0.962689 -0.283693 0.0 
0.0222242 0.000285126 0.0 
0.331024 0.00543562 0.0 
0.9252 -0.30557 0.0 
0.997396 -0.000676771 0.0 
0.999372 0.000728079 0.0 
1.00575 -0.000252639 0.0 
0.0461777 0.00174535 0.0 
1.00002 -0.000176914 0.0 
1.0012 -0.00379295 0.0 
1.02614 0.01249 0.0 
0.999645 0.00116344 0.0 
3.99642e-06 2.98938e-07 0.0 
1.00088 0 0.0 
0.999969 -3.39949e-05 0.0 
1.00612 0.000573043 0.0 
1.00024 0.000348559 0.0 
1.01974 0.0176931 0.0 
1.00008 -9.78782e-05 0.0 
1.00051 -0.000318316 0.0 
1.01004 0.00314098 0.0 
0.776831 -0.0286304 0.0 
0.981145 0.00551492 0.0 
0.139197 0.0209285 0.0 
0.99676 -0.00501857 0.0 
0.643563 0.0148743 0.0 
0.706078 0.0908198 0.0 
1.01842 0.00906971 0.0 
1.00245 0.00494113 0.0 
1.00622 0.001658 0.0 
1.01454 0.222412 0.0 
1.00441 0.000148333 0.0 
0.0121856 -0.00229145 0.0 
0.94506 0.00109381 0.0 
0.999334 -0.00833794 0.0 
1.00132 0.00134688 0.0 
0.154088 -0.0289184 0.0 
1.00883 0.00401988 0.0 
1.00003 0.000299447 0.0 
1.00024 0.00130778 0.0 
-1.18575e-225 1.30754e-227 0.0 
1.00608 0.000563129 0.0 
-2.938e-169 4.34746e-171 0.0 
0.186074 -0.0216013 0.0 
0.512726 0.0146411 0.0 
1.01012 -0.0115249 0.0 
1.00464 -3.46357e-05 0.0 
0.999735 2.68971e-05 0.0 
0.998036 -3.85482e-05 0.0 
0.999819 -3.20336e-06 0.0 
1.00003 0.000216835 0.0 
0.999582 0.00175948 0.0 
0.391425 -0.011334 0.0 
0.879779 -0.0954187 0.0 
0.882995 -0.0376152 0.0 
0.105935 0.00453475 0.0 
0.125741 0.139108 0.0 
0.230465 0.023054 0.0 
5.1005e-56 -3.36794e-57 0.0 
1.00583 0.00190504 0.0 
1.00268 -0.00437453 0.0 
1.00917 0.00654159 0.0 
0 0 0.0 
0.32841 0.00791803 0.0 
1.02848 0.0205247 0.0 
1.00064 0.000126283 0.0 
1.0002 0.000118988 0.0 
0.0374821 -1.78604e-05 0.0 
0.411612 -0.0370796 0.0 
0.205202 0.0174406 0.0 
1.09713 0.10206 0.0 
0.0514116 0.00252556 0.0 
0.270538 0.00655384 0.0 
1.00036 -0.000398832 0.0 
0.0881576 0.00652987 0.0 
1.00376 0.00022454 0.0 
0 0 0.0 
0.983972 0.048991 0.0 
0.00137628 4.72241e-05 0.0 
1.00516 0.000947586 0.0 
0.72479 0.0169042 0.0 
1.00224 0.00095833 0.0 
0.998215 -0.001551 0.0 
0.880308 -0.0179657 0.0 
0.865024 0.0309021 0.0 
0.256394 0.00662737 0.0 
0.915366 0.148623 0.0 
0.031133 -0.0169895 0.0 
1.01451 0.0133476 0.0 
0.999845 6.86818e-05 0.0 
0.99996 0.000205055 0.0 
1.01367 6.58395e-05 0.0 
0 0 0.0 
0.918852 -0.023535 0.0 
0.999939 0.000154551 0.0 
0.615537 -0.048064 0.0 
1.00638 0.00332952 0.0 
1.00865 -0.0462775 0.0 
0.14018 0.00362013 0.0 
1.00214 0.000742857 0.0 
0.999823 0.000106241 0.0 
1.00475 -0.00220874 0.0 
1.00054 0.000182698 0.0 
0.998967 0.00444823 0.0 
1.00013 0.000176531 0.0 
0.999515 8.70101e-05 0.0 
1.00162 -0.00046114 0.0 
0.999826 5.98736e-05 0.0 
0.0171366 -0.0029487 0.0 
0.112822 -0.0141584 0.0 
2.14076e-07 5.21107e-08 0.0 
1.00363 -0.000380484 0.0 
1.00443 -0.00259996 0.0 
0.260206 0.0230053 0.0 
1.00473 0.000483395 0.0 
0.999858 2.47028e-05 0.0 
1.00645 0.00472691 0.0 
0.978156 0.0375655 0.0 
0.876163 -0.0769653 0.0 
1.12239 0.113389 0.0 
0.000100989 -1.00185e-05 0.0 
0.999985 0.000115174 0.0 
-7.38529e-165 -4.01002e-166 0.0 
0 0 0.0 
0.999999 -0.000901703 0.0 
1.00142 0.00096756 0.0 
0.172218 -0.0207928 0.0 
1.00342 -0.00251233 0.0 
0.713964 -0.00617135 0.0 
0.999426 -0.000182617 0.0 
0.999856 -0.00149627 0.0 
0.957485 0.0287286 0.0 
0.99999 0.00075814 0.0 
1.00459 -0.00341788 0.0 
1.00568 0.00048811 0.0 
1.03299 -0.0264201 0.0 
0.883322 0.0144394 0.0 
-2.70702e-84 1.10799e-85 0.0 
0.0156545 0.00187122 0.0 
0.608848 0.00631134 0.0 
1.12252 0.0821909 0.0 
0.997007 0.206853 0.0 
1.00794 0.00331812 0.0 
0.0434755 -0.00424146 0.0 
1.00011 -0.000528083 0.0 
1.00001 -0.000250114 0.0 
0.965917 0.113446 0.0 
1.00005 -0.000425097 0.0 
0.864432 0.0319406 0.0 
1.00098 0.000202225 0.0 
1.00644 0.0037041 0.0 
1.00769 -0.00184575 0.0 
0.987494 0.0416241 0.0 
1.00137 -0.00614447 0.0 
1.09679 0.0878563 0.0 
0.962841 -0.05639 0.0 
0.014959 -0.00296939 0.0 
1.00124 0.00353755 0.0 
0.407691 0.00519375 0.0 
1 0.000226227 0.0 
0.433728 0.00832769 0.0 
0.999903 9.64669e-05 0.0 
0.999903 0.000115652 0.0 
0.999137 -6.31554e-05 0.0 
1.00405 0.000382834 0.0 
0.0286011 -0.00038296 0.0 
0.999747 -3.08386e-05 0.0 
1.00313 -0.000563653 0.0 
0.999852 3.7207e-05 0.0 
0.999777 -7.69696e-05 0.0 
1.00019 -0.000546603 0.0 
1.00033 0.00117683 0.0 
1.04572 0.243986 0.0 
1.00016 0.000161232 0.0 
0.999754 -0.000103302 0.0 
0.242419 -0.0109639 0.0 
1.00015 -0.000136085 0.0 
7.24019e-245 4.28065e-248 0.0 
0.395854 0.00572564 0.0 
0.999868 -2.63201e-07 0.0 
0.957732 -0.0175505 0.0 
0.337562 -0.00610332 0.0 
0.999848 -2.50163e-05 0.0 
0.964034 0.182108 0.0 
1.00653 -0.012195 0.0 
0.392578 0.0169818 0.0 
1.00007 -0.000658468 0.0 
0.999978 0.00039406 0.0 
1.00003 -0.000119882 0.0 
0.928147 -0.163971 0.0 
0.0397239 -0.00456628 0.0 
0.817318 0.126882 0.0 
0.210221 -0.0197724 0.0 
0.902467 0.0140759 0.0 
0.0243939 -0.0034458 0.0 
0.424437 0.00178859 0.0 
0.0348337 0.0131499 0.0 
0.0115287 0.00131794 0.0 
0.435752 -0.00083544 0.0 
1.00642 -0.00223964 0.0 
1.00122 -0.00630032 0.0 
1.09171 0.10111 0.0 
1.00264 -0.0013294 0.0 
1.07389 0.0536886 0.0 
1.0039 -0.00233301 0.0 
0.581328 0.0723602 0.0 
1.00094 0.0167629 0.0 
0.149632 -0.0192385 0.0 
1.00441 -0.0053807 0.0 
0.999842 2.70686e-06 0.0 
1.00315 -0.00283269 0.0 
0.363092 0.00821755 0.0 
0.0163571 -0.00257246 0.0 
0.453295 -0.307195 0.0 
0.339104 -0.00149805 0.0 
0.999573 -0.00581284 0.0 
0.359801 -0.0020969 0.0 
1.0012 0.000536526 0.0 
0.82782 0.0142168 0.0 
1.00453 0.00230389 0.0 
0.788905 0.141114 0.0 
0.999591 -0.000160461 0.0 
1.00508 -2.87833e-05 0.0 
1.00219 0.0014432 0.0 
0.996852 -7.9377e-05 0.0 
1.00538 0.00318183 0.0 
0.037096 -0.00723402 0.0 
1.00007 -0.000214075 0.0 
0.351457 0.000933954 0.0 
0.871728 -0.0516862 0.0 
0.00314898 7.18052e-05 0.0 
0.796443 -0.00110791 0.0 
0.999835 -0.000266481 0.0 
0.997777 0.0043522 0.0 
0.49522 -0.00181036 0.0 
1.00001 -0.000128551 0.0 
0.00122045 9.39967e-05 0.0 
1.00811 0.0037161 0.0 
0.93194 0.00101245 0.0 
0.914098 -0.0159111 0.0 
1.00314 0.00208375 0.0 
0.0117373 -0.00214521 0.0 
2.01394e-49 4.15069e-51 0.0 
0.999787 0.000111386 0.0 
1.01357 -0.00877643 0.0 
1.00235 -0.0180627 0.0 
0.840945 -0.0526663 0.0 
1 -0.000244489 0.0 
0.323146 -0.234378 0.0 
0.39112 0.0873008 0.0 
0.731262 -0.0319319 0.0 
0.999996 0.000342721 0.0 
1.00302 0.0109097 0.0 
1.00261 -0.0148233 0.0 
0.229909 -0.0148814 0.0 
0.0409583 -0.00207445 0.0 
0 0 0.0 
0.283435 -0.0407283 0.0 
1.12674 0.0863188 0.0 
0.318622 0.0437057 0.0 
0 0 0.0 
0.140601 0.0041823 0.0 
0.782792 -0.01689 0.0 
1.00101 -0.0097518 0.0 
0.998419 -0.00292204 0.0 
0.962234 -0.04451 0.0 
1.00482 0 0.0 
0.760714 0.151205 0.0 
0.757724 0.0258622 0.0 
1.02805 -0.100598 0.0 
0.901429 0.0192752 0.0 
0.886827 -0.055057 0.0 
0.0152284 -0.0276646 0.0 
1.00064 0.000250355 0.0 
0 0 0.0 
1.00135 0.00529483 0.0 
1.00019 7.15191e-05 0.0 
0.61237 -0.0512616 0.0 
0.915324 -0.372932 0.0 
1.04078 -0.00220507 0.0 
0.999781 4.58688e-05 0.0 
1.00143 0 0.0 
0.877061 0.241673 0.0 
0.00795765 -0.000946265 0.0 
1.00004 0.000335757 0.0 
0.347822 0.0107287 0.0 