<VTKFile type="UnstructuredGrid" version="0.1" byte_order="LittleEndian">
  <UnstructuredGrid>
    <Piece NumberOfPoints="13555" NumberOfCells="26921">
      <Points>
        <DataArray type = "Float64" NumberOfComponents="3" format="ascii">
0 0 0.0 
14 0 0.0 
14 8 0.0 
0 8 0.0 
0.383893 2.91152 0.0 
4.3099 4.04149 0.0 
2.56442 3.80169 0.0 
4.94157 3.98326 0.0 
4.30994 3.99238 0.0 
10.7133 0.39982 0.0 
4.37485 4.03878 0.0 
4.07057 3.9639 0.0 
4.53824 7.43039 0.0 
11.0141 2.68915 0.0 
3.98741 4.04054 0.0 
3.98768 4.02653 0.0 
4.15165 4.04471 0.0 
4.10206 3.96084 0.0 
10.5103 5.31673 0.0 
4.48765 4.04193 0.0 
4.03832 3.98435 0.0 
4.47538 4.03375 0.0 
4.67405 4.10923 0.0 
4.1789 4.0308 0.0 
4.80484 4.03022 0.0 
4.61584 4.00791 0.0 
12.1265 0 0.0 
14 3.14675 0.0 
10.2825 1.1779 0.0 
4.30241 3.97961 0.0 
4.10259 4.04016 0.0 
4.13489 4.05432 0.0 
4.51881 4.031 0.0 
11.3876 0.270576 0.0 
11.1932 3.02836 0.0 
4.22492 3.96395 0.0 
13.8261 5.94601 0.0 
0 3.36284 0.0 
4.93697 3.93496 0.0 
5.2525 4.08103 0.0 
4.89402 3.94006 0.0 
10.1734 4.4195 0.0 
4.0273 4.01367 0.0 
8.4574 2.322 0.0 
4.45409 2.45801 0.0 
4.62342 4.01415 0.0 
4.00988 3.97037 0.0 
5.17517 4.1161 0.0 
4.6207 4.09144 0.0 
2.46839 6.41987 0.0 
4.20593 3.97883 0.0 
4.12607 4.05951 0.0 
4.56283 3.99857 0.0 
4.2483 4.03635 0.0 
4.0955 3.94899 0.0 
4.03444 4.04627 0.0 
4.00163 4.02959 0.0 
4.02005 3.99731 0.0 
5.23503 8 0.0 
4.19186 4.05532 0.0 
3.93276 3.9602 0.0 
7.16062 3.035 0.0 
5.35828 4.09214 0.0 
6.98691 2.68677 0.0 
10.4466 3.51765 0.0 
4.53576 4.02646 0.0 
7.58425 5.24486 0.0 
4.35473 4.03787 0.0 
4.41354 4.02776 0.0 
2.61514 0.506135 0.0 
4.051 4.00074 0.0 
4.15825 4.03374 0.0 
4.04672 4.0202 0.0 
4.94501 3.90266 0.0 
4.55171 4.00358 0.0 
4.54772 3.97659 0.0 
3.96947 4.02134 0.0 
4.21303 3.97045 0.0 
5.28835 3.91341 0.0 
3.96297 3.96024 0.0 
4.09803 3.98339 0.0 
4.59507 4.51087 0.0 
4.88569 3.98105 0.0 
4.11692 3.94964 0.0 
3.59678 3.72317 0.0 
3.95785 3.95439 0.0 
4.90839 4.00372 0.0 
4.02972 4.04518 0.0 
14 1.00091 0.0 
3.97141 4.03046 0.0 
8.48285 5.046 0.0 
3.97561 4.03322 0.0 
3.97816 4.02179 0.0 
4.04633 4.03304 0.0 
3.96767 4.02507 0.0 
4.53971 3.97638 0.0 
4.00923 4.01305 0.0 
4.96907 4.10551 0.0 
4.54225 3.97864 0.0 
3.10914 5.59567 0.0 
4.18998 4.04971 0.0 
4.54991 3.98013 0.0 
6.52781 1.51786 0.0 
4.73521 7.52615 0.0 
4.00964 3.98933 0.0 
4.52549 3.98021 0.0 
4.51298 3.98646 0.0 
4.15592 3.99858 0.0 
4.98619 3.93198 0.0 
4.07127 4.09088 0.0 
3.31161 1.01031 0.0 
3.1002 2.25282 0.0 
5.25032 1.89548 0.0 
4.63883 4.00936 0.0 
11.1865 7.25481 0.0 
4.15126 3.98564 0.0 
4.52508 4.00757 0.0 
11.7256 4.37918 0.0 
5.29269 4.05862 0.0 
6.37297 2.73989 0.0 
6.50541 6.65271 0.0 
4.0914 3.96216 0.0 
1.94587 1.61999 0.0 
5.20281 3.96498 0.0 
4.1403 4.03691 0.0 
4.08333 4.07128 0.0 
4.65935 4.04515 0.0 
4.09065 3.95069 0.0 
4.05312 3.99197 0.0 
13.7435 8 0.0 
4.11702 4.02719 0.0 
6.67367 0 0.0 
4.00932 4.01975 0.0 
6.82471 4.26136 0.0 
4.20354 4.03712 0.0 
4.47099 4.06166 0.0 
4.01425 3.98947 0.0 
4.51911 3.99788 0.0 
3.69172 4.54424 0.0 
2.66716 0 0.0 
3.90873 3.96021 0.0 
13.1055 3.48759 0.0 
6.22735 7.50315 0.0 
4.45752 4.00971 0.0 
4.53801 4.03291 0.0 
5.81584 4.04525 0.0 
3.9023 6.84053 0.0 
8.95603 7.57132 0.0 
4.22222 4.09636 0.0 
3.98122 4.01031 0.0 
4.62543 3.98261 0.0 
9.65423 4.26818 0.0 
13.1818 2.98063 0.0 
4.0891 3.98536 0.0 
4.2904 3.92587 0.0 
11.8702 0.212102 0.0 
9.69483 7.24214 0.0 
4.54778 4.01674 0.0 
4.08927 3.9549 0.0 
12.6381 7.48703 0.0 
4.00773 4.00001 0.0 
4.47612 4.00819 0.0 
4.51291 3.9987 0.0 
4.09428 3.96323 0.0 
7.83547 2.82767 0.0 
3.9678 4.04964 0.0 
4.18332 3.96996 0.0 
4.1152 4.03957 0.0 
4.50995 3.99788 0.0 
7.01384 4.49853 0.0 
12.0372 1.49526 0.0 
3.22012 3.32395 0.0 
3.14582 3.72756 0.0 
4.76297 3.98343 0.0 
4.05399 4.05242 0.0 
5.11537 3.91723 0.0 
3.9902 3.99964 0.0 
10.151 2.94085 0.0 
6.38052 3.13775 0.0 
5.9291 5.15993 0.0 
8.91842 0.967714 0.0 
1.48228 7.49995 0.0 
9.4176 1.73395 0.0 
3.84668 3.90466 0.0 
5.24537 4.1668 0.0 
1.21548 8 0.0 
4.46368 4.04155 0.0 
3.88271 3.53348 0.0 
4.06062 3.97377 0.0 
8.35832 2.9685 0.0 
13.4699 7.45697 0.0 
4.00414 3.99309 0.0 
4.01229 3.97705 0.0 
13.1592 5.25121 0.0 
4.31501 4.03785 0.0 
1.77673 6.77593 0.0 
4.09808 4.03387 0.0 
4.01461 4.01826 0.0 
4.00577 3.97873 0.0 
4.58721 3.08816 0.0 
9.95537 3.59845 0.0 
6.98728 5.60342 0.0 
7.62224 2.88267 0.0 
7.22419 0.703495 0.0 
4.21339 4.02989 0.0 
4.00241 3.93803 0.0 
4.84915 4.03246 0.0 
12.9422 5.39238 0.0 
8.67201 2.39205 0.0 
9.70352 1.23095 0.0 
5.8599 3.0813 0.0 
3.92977 4.29358 0.0 
13.5337 6.38237 0.0 
4.50998 3.99843 0.0 
4.19813 4.04526 0.0 
4.35504 4.71867 0.0 
4.6103 3.91602 0.0 
4.14043 4.04552 0.0 
4.23813 4.04356 0.0 
4.11575 4.03408 0.0 
4.71442 4.01913 0.0 
4.20274 4.07949 0.0 
4.11271 4.04576 0.0 
12.5015 1.14918 0.0 
4.09797 3.95385 0.0 
4.23052 4.09368 0.0 
4.20868 4.08388 0.0 
4.02321 3.97317 0.0 
13.2903 7.45798 0.0 
4.21025 4.03415 0.0 
4.46704 4.01899 0.0 
4.79586 4.50251 0.0 
4.34247 3.99225 0.0 
4.02074 4.0027 0.0 
3.98799 3.95955 0.0 
4.84809 6.69312 0.0 
8.82235 8 0.0 
4.23781 4.09881 0.0 
4.07449 3.94324 0.0 
4.69512 3.9114 0.0 
4.96928 3.97464 0.0 
10.6153 7.62373 0.0 
4.06329 4.04721 0.0 
4.55263 4.00322 0.0 
4.18805 3.96826 0.0 
13.6945 7.80328 0.0 
6.21308 5.48605 0.0 
4.46085 3.99735 0.0 
0.417479 6.31883 0.0 
5.97375 5.37063 0.0 
1.1914 3.57636 0.0 
4.16892 4.04593 0.0 
4.29623 3.98441 0.0 
3.98977 4.04663 0.0 
3.99153 4.04254 0.0 
4.57553 4.01147 0.0 
4.22773 4.04303 0.0 
3.90895 4.08231 0.0 
4.00278 4.12034 0.0 
3.97296 4.00674 0.0 
11.3714 7.19716 0.0 
9.192 5.81999 0.0 
4.1283 4.05439 0.0 
3.53429 0 0.0 
4.67134 3.89044 0.0 
4.08953 4.02996 0.0 
4.14091 4.04918 0.0 
2.30378 3.03595 0.0 
4.90953 3.97583 0.0 
4.231 4.04427 0.0 
7.40997 8 0.0 
4.46305 4.00589 0.0 
2.86414 6.59491 0.0 
3.45004 4.08871 0.0 
9.9204 3.84008 0.0 
6.64238 0.26606 0.0 
7.6398 2.6807 0.0 
4.92704 4.10133 0.0 
6.78993 2.13526 0.0 
4.26037 4.04317 0.0 
0.846754 0.565038 0.0 
6.21697 4.34916 0.0 
4.06141 4.07923 0.0 
4.38688 4.0795 0.0 
4.02904 3.9664 0.0 
7.59973 7.22298 0.0 
12.6277 1.80732 0.0 
14 4.58149 0.0 
5.85073 0.410811 0.0 
13.0902 7.46595 0.0 
6.16851 4.52048 0.0 
1.33311 1.459 0.0 
4.47621 4.01636 0.0 
6.95088 7.06331 0.0 
2.89315 5.49872 0.0 
4.74535 3.98025 0.0 
4.51225 4.03393 0.0 
3.96066 4.00697 0.0 
3.58116 4.19887 0.0 
4.96395 4.01931 0.0 
13.1661 5.68046 0.0 
13.7895 0 0.0 
4.10795 4.02897 0.0 
6.85323 7.27439 0.0 
11.4357 2.10385 0.0 
4.55143 4.02796 0.0 
12.1568 4.12069 0.0 
4.00791 4.0033 0.0 
4.0088 3.9805 0.0 
9.75515 2.36072 0.0 
4.25006 4.04561 0.0 
11.2339 4.91076 0.0 
4.02947 3.97325 0.0 
4.30033 6.55304 0.0 
4.6454 3.91884 0.0 
4.01129 4.00596 0.0 
10.0323 4.54408 0.0 
4.03631 3.98654 0.0 
0.348252 3.38744 0.0 
4.44623 3.99099 0.0 
4.01755 3.97046 0.0 
4.52386 4.04096 0.0 
0.195775 6.68759 0.0 
5.0604 3.97687 0.0 
6.42419 4.18044 0.0 
4.00163 4.00499 0.0 
4.05373 4.0206 0.0 
4.0593 4.0207 0.0 
9.54961 6.99546 0.0 
4.73456 4.01964 0.0 
4.11868 3.97589 0.0 
4.15516 3.94365 0.0 
4.01695 3.96353 0.0 
4.05637 4.03083 0.0 
8.32777 8 0.0 
5.99012 4.04484 0.0 
4.54092 4.00702 0.0 
6.1189 4.72307 0.0 
4.03688 3.99254 0.0 
5.06461 4.08435 0.0 
4.00437 3.9841 0.0 
4.4098 4.02844 0.0 
4.0134 3.97877 0.0 
3.03193 6.72582 0.0 
4.5555 3.99978 0.0 
4.01079 3.9893 0.0 
14 3.84943 0.0 
4.36156 4.08272 0.0 
2.48952 3.59766 0.0 
11.8107 0.651755 0.0 
0.845864 1.62601 0.0 
4.20001 4.03326 0.0 
4.19931 3.98701 0.0 
4.21639 4.03358 0.0 
3.92685 3.99783 0.0 
3.89766 4.03669 0.0 
11.5792 7.84461 0.0 
0.551344 1.2516 0.0 
4.02575 3.96118 0.0 
4.03796 3.98521 0.0 
6.49849 5.21743 0.0 
2.37857 1.61641 0.0 
7.99609 6.1415 0.0 
2.41658 7.83801 0.0 
6.73412 3.55133 0.0 
4.09728 4.03704 0.0 
4.41872 3.99555 0.0 
11.8351 6.74811 0.0 
3.7716 4.00818 0.0 
4.1127 3.96242 0.0 
5.16077 4.06745 0.0 
4.15116 3.93854 0.0 
4.13176 4.07898 0.0 
10.2186 2.28825 0.0 
2.77496 7.51281 0.0 
4.85957 4.01386 0.0 
4.02586 3.98561 0.0 
4.00279 3.99128 0.0 
4.05385 4.00986 0.0 
4.08296 4.00762 0.0 
3.84352 4.30665 0.0 
5.18263 3.94369 0.0 
6.32476 7.00417 0.0 
12.5996 5.63737 0.0 
4.64409 4.00438 0.0 
4.52616 3.99766 0.0 
4.10984 4.03331 0.0 
4.47929 4.02137 0.0 
4.0108 3.9997 0.0 
12.2741 7.78702 0.0 
7.34292 5.19319 0.0 
4.01845 4.01173 0.0 
4.29687 4.03899 0.0 
4.15297 4.79488 0.0 
12.4999 4.90684 0.0 
3.96806 4.01296 0.0 
11.0968 5.75296 0.0 
4.55406 3.99831 0.0 
4.50247 4.01259 0.0 
4.35176 4.03658 0.0 
4.05983 4.03058 0.0 
4.53313 4.00673 0.0 
4.5467 4.03146 0.0 
4.93652 4.08387 0.0 
4.88498 4.06106 0.0 
4.53595 4.04072 0.0 
7.20657 5.05296 0.0 
3.05391 4.40989 0.0 
4.18108 4.21363 0.0 
4.20802 4.04698 0.0 
4.53295 4.01509 0.0 
4.13651 4.04345 0.0 
5.30644 0.173765 0.0 
0.198711 3.79297 0.0 
4.72583 0.194576 0.0 
3.90471 2.31823 0.0 
13.1877 3.69172 0.0 
4.05618 4.08801 0.0 
4.5671 3.97265 0.0 
7.19396 5.74117 0.0 
4.00353 3.9915 0.0 
4.73668 3.89169 0.0 
4.04877 3.98924 0.0 
3.96886 4.00175 0.0 
4.64006 3.99672 0.0 
4.3392 4.03832 0.0 
9.90278 1.9712 0.0 
4.24843 4.04441 0.0 
4.82507 4.1106 0.0 
4.10171 3.98704 0.0 
4.00487 4.00528 0.0 
0.347962 1.57688 0.0 
0.898692 6.20579 0.0 
4.54396 3.89411 0.0 
7.00233 6.47926 0.0 
7.78364 0 0.0 
6.32437 6.34013 0.0 
0.262648 3.59525 0.0 
5.62592 4.80931 0.0 
4.7383 3.87602 0.0 
9.65721 5.90637 0.0 
4.04671 4.09621 0.0 
1.64832 6.43608 0.0 
13.7604 0.5867 0.0 
11.4878 0.917753 0.0 
7.56457 6.83703 0.0 
11.074 3.76133 0.0 
4.25841 3.96952 0.0 
4.03014 4.02376 0.0 
5.42705 4.66868 0.0 
4.0104 4.03331 0.0 
11.6886 4.91255 0.0 
4.61916 3.98898 0.0 
5.35656 3.74724 0.0 
4.05828 4.04836 0.0 
2.66751 5.16506 0.0 
3.94902 3.70024 0.0 
7.12026 6.70684 0.0 
4.30141 4.04146 0.0 
11.2705 7.61787 0.0 
4.10352 3.98424 0.0 
8.68036 3.80939 0.0 
10.532 2.82163 0.0 
7.14156 0.150746 0.0 
4.08463 4.01547 0.0 
3.85377 3.84164 0.0 
4.0458 4.02959 0.0 
4.09178 4.02837 0.0 
4.20796 4.10642 0.0 
8.64936 2.61471 0.0 
9.46048 3.26649 0.0 
13.642 4.55453 0.0 
7.06289 0.290476 0.0 
4.03783 4.02637 0.0 
[...]
<PointData>
  <DataArray type = "Float64" Name="Vitesse" NumberOfComponents="3" format="ascii">
1 0 0.0 
1.00396 0 0.0 
1.00197 0 0.0 
1 0 0.0 
0.999969 -0.000137016 0.0 
0.0490141 -0.00321938 0.0 
0.995766 -0.000200439 0.0 
0.469647 0.0104586 0.0 
0.00758621 0.000458109 0.0 
1.00543 0.000129779 0.0 
0.0853994 -0.00809153 0.0 
0.874892 -0.0944122 0.0 
1.00523 0.000723927 0.0 
1.0065 0.00111391 0.0 
0.774346 0.197504 0.0 
0.68242 0.189149 0.0 
0.0847758 0.00328099 0.0 
0.815828 -0.0523831 0.0 
1.00627 -0.00121307 0.0 
0.238497 -0.0248648 0.0 
0.185984 -0.0241628 0.0 
0.132807 -0.0160002 0.0 
0.959212 -0.0453114 0.0 
0 0 0.0 
0.371404 -0.0172798 0.0 
0.117814 -0.00181765 0.0 
1.00489 0 0.0 
1.00578 0.00160777 0.0 
1.00581 0.000352707 0.0 
0.221855 0.00576531 0.0 
0.112908 0.0155926 0.0 
0.538949 0.0595193 0.0 
0.145915 -0.0182478 0.0 
1.00518 9.34097e-05 0.0 
1.00659 0.00137126 0.0 
0.532324 0.00213072 0.0 
1.00236 -0.00243922 0.0 
1 0 0.0 
0.804143 0.0187158 0.0 
0.808425 -0.0157245 0.0 
0.771096 0.0207075 0.0 
1.0084 -0.00113422 0.0 
0 0 0.0 
1.00689 0.000274808 0.0 
1.00748 -0.00496351 0.0 
0.132091 -0.00993132 0.0 
0.963784 -0.325252 0.0 
0.943068 -0.0160532 0.0 
0.866413 -0.0504726 0.0 
1.00159 0.00244466 0.0 
0.214058 0.00484864 0.0 
0.761788 0.104438 0.0 
0.0342689 0.0129666 0.0 
0 0 0.0 
1.03225 -0.0965824 0.0 
0.924863 0.316315 0.0 
0.720098 0.30927 0.0 
0 0 0.0 
1.00568 0 0.0 
0.373036 0.0145328 0.0 
0.87553 -0.0771967 0.0 
1.00753 0.00024818 0.0 
0.857278 -0.0128903 0.0 
1.00741 0.000167641 0.0 
1.00799 0.00123076 0.0 
0.12018 -0.0171688 0.0 
1.00722 -0.00134495 0.0 
0.0482012 -0.00498021 0.0 
0.00725397 -0.0011625 0.0 
1.00143 -0.000611865 0.0 
0 0 0.0 
0 0 0.0 
0 0 0.0 
0.948218 0.016644 0.0 
0.00299916 -0.000613417 0.0 
0.34736 0.0151346 0.0 
0.725445 0.0673449 0.0 
0.39753 0.00440895 0.0 
0.891354 0.00950144 0.0 
0.859685 -0.137456 0.0 
0.0812936 0.00340232 0.0 
1.03231 -0.000875273 0.0 
0.460063 0.0137 0.0 
0.980694 -0.0675027 0.0 
0.981854 -0.0147836 0.0 
0.874302 -0.124895 0.0 
0.37927 0.00108057 0.0 
0.912826 0.32398 0.0 
1.00406 0.000647933 0.0 
0.750313 0.107093 0.0 
1.00705 -0.00125999 0.0 
0.751154 0.131258 0.0 
0.6863 0.104791 0.0 
0.431266 0.133315 0.0 
0.743949 0.0768525 0.0 
0.345884 0.0127247 0.0 
0.123319 0.0730591 0.0 
0.919654 -0.0251041 0.0 
0.31517 0.0121407 0.0 
1.00228 0.00587294 0.0 
0.192287 0.00489092 0.0 
0.298717 0.0140838 0.0 
1.00654 -0.000307472 0.0 
1.0054 0.000525257 0.0 
0.36077 -0.149496 0.0 
0.283347 0.00841458 0.0 
0.185749 0.00517701 0.0 
-2.57044e-238 -2.4673e-239 0.0 
0.822077 0.0170771 0.0 
1.04671 0.209069 0.0 
1.00244 -0.00157258 0.0 
1.00125 -0.0040471 0.0 
1.00692 -0.0016673 0.0 
0.148071 -0.00221357 0.0 
1.00431 -0.000385064 0.0 
0.0408661 0.00175865 0.0 
1.77855e-06 -3.39158e-07 0.0 
1.00481 -0.00209946 0.0 
0.695651 -0.012811 0.0 
1.00782 0.000157865 0.0 
1.00677 -0.000331343 0.0 
0.823435 -0.0621659 0.0 
1.00045 -0.00131249 0.0 
0.637521 0.00939933 0.0 
0 0 0.0 
1.05908 0.225381 0.0 
0.396089 -0.0358477 0.0 
1.02738 -0.100548 0.0 
0 0 0.0 
1.00223 0 0.0 
0 0 0.0 
1.00579 0 0.0 
0.528984 0.307666 0.0 
1.00596 -0.0023876 0.0 
0 0 0.0 
0.50379 -0.0369017 0.0 
0.15411 -0.0292413 0.0 
0.0165486 0.000105829 0.0 
0.99698 0.0236099 0.0 
1.00152 0 0.0 
0.892326 -0.0518241 0.0 
1.00643 0.00214359 0.0 
1.00613 -1.02057e-05 0.0 
0 0 0.0 
0.182466 -0.0236232 0.0 
0.69593 -0.00530178 0.0 
1.00471 0.00208951 0.0 
1.00521 -0.000174004 0.0 
1.08816 0.0642303 0.0 
0.604853 0.0330473 0.0 
0.299225 0.0273144 0.0 
0.996802 -0.000733286 0.0 
1.00413 0.00175941 0.0 
0.0167983 -0.000126588 0.0 
0.994582 -0.0164408 0.0 
1.00501 7.68513e-05 0.0 
1.005 -0.000320033 0.0 
0.0602944 -0.0120323 0.0 
0.979738 -0.0919719 0.0 
1.0033 -0.000409499 0.0 
0 0 0.0 
1e-307 0 0.0 
0.000133684 1.62323e-05 0.0 
0.782424 -0.0533458 0.0 
1.00719 0.000268842 0.0 
0.819553 0.126802 0.0 
0.422443 0.00231886 0.0 
5.3931e-133 1.0414e-133 0.0 
0.0124435 0.0005356 0.0 
1.00756 -0.00230875 0.0 
1.00524 0.000612094 0.0 
0.995236 -0.00721999 0.0 
0.990585 -0.00333464 0.0 
0.381699 0.017624 0.0 
0.961948 0.27374 0.0 
0.886614 0.0120383 0.0 
0.449118 -0.160128 0.0 
1.00698 0.000845081 0.0 
1.00835 0.000264309 0.0 
1.00939 -0.00219546 0.0 
1.00604 0.000145089 0.0 
1.00059 0.000418882 0.0 
1.00636 0.000354686 0.0 
0.942389 -0.0379838 0.0 
1.00334 -0.0128443 0.0 
1.00042 0 0.0 
0.212544 -0.021997 0.0 
0.999197 -0.0272768 0.0 
0.58656 -0.0572713 0.0 
1.00723 0.0003369 0.0 
1.00255 -0.00053192 0.0 
0.253351 -0.175508 0.0 
0.930597 -0.339098 0.0 
1.00403 -0.0032236 0.0 
2.22307e-07 -7.99003e-09 0.0 
1.00078 0.00125601 0.0 
0 0 0.0 
0.299826 0.144335 0.0 
0.89575 -0.38531 0.0 
1.01342 -0.00626828 0.0 
1.00815 0.00122314 0.0 
1.00751 -0.00122828 0.0 
1.00722 0.000248812 0.0 
1.00604 -6.07725e-05 0.0 
4.5933e-227 1.17019e-228 0.0 
0.965804 -0.189612 0.0 
0.412466 -0.016558 0.0 
1.00414 -0.00282767 0.0 
1.00691 0.000314481 0.0 
1.006 0.000293076 0.0 
1.00883 0.000462049 0.0 
0.99289 0.058827 0.0 
1.00265 -0.00174803 0.0 
0.00515587 0.000313727 0.0 
0.038934 0.0012333 0.0 
1.02485 0.0130516 0.0 
0.950332 0.0268168 0.0 
0.153286 0.0151096 0.0 
3.52328e-06 -2.6238e-07 0.0 
0 0 0.0 
0.246036 -0.0108377 0.0 
0.951273 0.061511 0.0 
0.315623 0.0440759 0.0 
1.00491 0.000494295 0.0 
0.969445 -0.081105 0.0 
1.06465 0.0552636 0.0 
1.00084 0.0627054 0.0 
0.950184 -0.259089 0.0 
1.00273 -0.000512512 0.0 
0 0 0.0 
0.0022723 -2.89361e-05 0.0 
1.0247 -0.00756404 0.0 
0.0280974 0.00251062 0.0 
0 0 0.0 
0.887107 -0.218386 0.0 
1.00666 0.00133885 0.0 
1.00519 0 0.0 
1.08759 0.0541038 0.0 
1.08062 -0.134706 0.0 
0.950071 0.0281632 0.0 
0.530715 0.0130384 0.0 
1.00449 -0.000175407 0.0 
0.816432 0.21181 0.0 
0.00257481 -0.000492638 0.0 
0.460102 0.00151989 0.0 
1.00229 -0.000196429 0.0 
1.00866 -0.00143804 0.0 
0.00581368 0.000551072 0.0 
1.00003 0.000335148 0.0 
1.00923 -0.00158865 0.0 
0.999497 -5.88955e-05 0.0 
0.0893448 0.0016356 0.0 
0.135161 0.00392651 0.0 
0.804585 0.205429 0.0 
0.78716 0.217376 0.0 
0.0576911 -0.0182153 0.0 
2.7272e-07 -5.38756e-09 0.0 
0.903693 0.0630545 0.0 
0.959824 0.148526 0.0 
0.675164 -0.0143262 0.0 
1.00423 -0.000431688 0.0 
1.00627 -0.000841925 0.0 
0.578007 0.0713232 0.0 
1.00273 0 0.0 
1.01 0.0239331 0.0 
0 0 0.0 
0.305501 0.0276361 0.0 
0.998497 -0.00208799 0.0 
0.503577 0.014011 0.0 
0.0229385 -0.000243085 0.0 
1.00573 0 0.0 
1e-307 1e-307 0.0 
1.00239 0.00250607 0.0 
0.980912 0.00547948 0.0 
0.942717 0.00113551 0.0 
1.00582 -6.90581e-05 0.0 
1.0072 0.000216981 0.0 
0.905927 -0.026631 0.0 
1.00709 -7.91995e-05 0.0 
0.0184463 0.000377099 0.0 
1.00013 -0.000181948 0.0 
1.0078 -0.00367749 0.0 
1.03332 0.233768 0.0 
0.765951 -0.0283219 0.0 
1.02126 -0.245412 0.0 
1.00586 -0.000290742 0.0 
1.00507 0.000840154 0.0 
1.00652 -0.00562622 0.0 
1.00553 -0.000246114 0.0 
1.00291 -0.000483785 0.0 
1.00858 -0.00370807 0.0 
1.00021 -0.000714545 0.0 
9.22309e-204 -1.85092e-204 0.0 
1.00621 -0.000287456 0.0 
1.00129 0.00540486 0.0 
0.398166 0.0198356 0.0 
0.169418 -0.0201407 0.0 
0.747268 -0.0128595 0.0 
0.977605 0.0158045 0.0 
0.420494 -0.00713575 0.0 
1.00351 -0.00255441 0.0 
1.00409 0 0.0 
0 0 0.0 
1.00611 -0.000191474 0.0 
1.00588 0.000871493 0.0 
0.147227 -0.023676 0.0 
0.928441 -0.00426324 0.0 
0 0 0.0 
0.878258 -0.36757 0.0 
1.00672 0.000581623 0.0 
0.0695651 -0.00251013 0.0 
1.0069 -0.00162204 0.0 
0.898948 -0.2084 0.0 
1.00608 0.00238332 0.0 
0.927507 0.029102 0.0 
0 0 0.0 
1.00841 -0.0013623 0.0 
0.055155 -0.00479382 0.0 
0.999969 -3.98632e-05 0.0 
0.0932104 0.00239309 0.0 
0.994824 -0.302469 0.0 
0.258743 -0.0280271 0.0 
1 0.00012915 0.0 
0.543792 0.0100524 0.0 
0.993684 -0.00394182 0.0 
4.281e-48 5.4014e-48 0.0 
0 0 0.0 
0 0 0.0 
1.00518 -0.000418901 0.0 
0.266176 -0.0109532 0.0 
0.313396 -0.00276589 0.0 
0.979055 -0.0465501 0.0 
1.00662 -0.280656 0.0 
0.0941496 0.0249991 0.0 
1.00539 0 0.0 
0.709728 -0.00578527 0.0 
0.00690309 -0.00109683 0.0 
1.00921 -0.0032966 0.0 
0 0 0.0 
0.820146 -0.0214169 0.0 
0.804998 -0.413629 0.0 
0.00835618 -0.000895618 0.0 
0.892359 -0.319088 0.0 
1.00275 0.00233778 0.0 
1.03126e-121 3.32874e-124 0.0 
0.312448 -0.112645 0.0 
0.962013 0.000321069 0.0 
0.821725 -0.0216989 0.0 
0.996495 -0.00110212 0.0 
1.00509 0.000237245 0.0 
1.00006 -0.000444814 0.0 
0 0 0.0 
0.0405399 0.00280366 0.0 
0 0 0.0 
0.844835 -0.0236227 0.0 
0.884607 0.0251275 0.0 
1.00395 -8.65215e-05 0.0 
1.00004 -0.000234832 0.0 
1.0364 -0.253181 0.0 
0.130309 -0.0174856 0.0 
1.00813 -0.00184173 0.0 
1.00082 -0.00177669 0.0 
1.00638 -0.000782125 0.0 
1.00166 0.000228983 0.0 
1.00818 0.000686418 0.0 
0 1e-307 0.0 
0.0149263 0.00141995 0.0 
1.00418 -0.000791589 0.0 
0.944504 0.00100602 0.0 
0.739118 -0.0361491 0.0 
0.730337 -0.0166603 0.0 
1.02884 -0.0559189 0.0 
1.07097 0.153691 0.0 
1.00655 0.000692756 0.0 
1.00221 0.000778822 0.0 
0.348019 -0.00495952 0.0 
0.251463 -0.0480266 0.0 
0.499844 -0.352558 0.0 
0 0 0.0 
0 0 0.0 
0.984985 0.0443707 0.0 
0.754802 0.011617 0.0 
1.00648 -0.000120459 0.0 
1.00431 -0.00222416 0.0 
0.162232 0.00410784 0.0 
0.0213062 0.000295866 0.0 
-4.96943e-249 -3.21027e-250 0.0 
0.0289999 -0.00447546 0.0 
0 0 0.0 
1.00353 -0.000150277 0.0 
1.00734 -0.00141829 0.0 
0 0 0.0 
2.53168e-14 -5.02673e-16 0.0 
1.01707 0.0172956 0.0 
1.0045 -0.0031085 0.0 
0.713401 0.0218059 0.0 
1.00553 -0.00121967 0.0 
0.0194114 -0.000339081 0.0 
0.000229925 -2.70102e-05 0.0 
0.0266688 -0.00196812 0.0 
1.1779e-43 3.61927e-44 0.0 
1.36505e-118 -2.60982e-119 0.0 
0.175677 -0.0248445 0.0 
0.815254 -0.0265676 0.0 
0.644289 -0.027102 0.0 
0.265864 -0.0297847 0.0 
1.00744 -0.0016484 0.0 
0.993596 0.00667993 0.0 
1.07317 0.0738684 0.0 
0.0887711 0.00144779 0.0 
0.0372512 -0.00632517 0.0 
0.0802471 0.00125511 0.0 
1.00507 -0.000158938 0.0 
0.999992 2.87284e-05 0.0 
1.00445 -0.000240056 0.0 
1.00447 -0.00549425 0.0 
0.97836 0.00328571 0.0 
1.02137 0.218498 0.0 
0.407669 0.0267286 0.0 
1.00723 -0.00108972 0.0 
0.45288 -0.307335 0.0 
0.996049 0.0233347 0.0 
0 0 0.0 
0.706639 -0.0460204 0.0 
0.190484 0.0129719 0.0 
0.0336626 -0.00340867 0.0 
1.00641 0.000517034 0.0 
0.039604 -8.54373e-05 0.0 
0.944797 -0.0335623 0.0 
2.37188e-155 7.14851e-157 0.0 
0 0 0.0 
1.00001 -0.000169777 0.0 
1.00012 0.00078556 0.0 
1.03029 0.012841 0.0 
1.00666 -0.000576226 0.0 
1.00591 0 0.0 
1.00725 -0.000436198 0.0 
0.999977 6.59186e-06 0.0 
1.01111 -0.00389922 0.0 
1.01517 0.0208048 0.0 
1.00599 -0.000837277 0.0 
1.00441 0.203984 0.0 
1.00057 0.00144206 0.0 
1.00416 0.000353439 0.0 
1.00528 0.000330248 0.0 
1.0061 -0.000453275 0.0 
0.978174 0.0024735 0.0 
0.407346 0.00609123 0.0 
0.181826 0.0616932 0.0 
1.01307 -0.00551913 0.0 
0.7846 0.342661 0.0 
1.00653 -0.00207085 0.0 
0.228748 0.0228712 0.0 
1.00818 0.00486882 0.0 
0.881496 0.242241 0.0 
0.999697 0.00505256 0.0 
0.996138 -0.0454758 0.0 
1.0064 -0.000471899 0.0 
0.0370662 -0.00395524 0.0 
1.00417 -0.000198533 0.0 
0.0553257 -0.000553391 0.0 
0.976448 0.00117309 0.0 
1.00678 0.00100583 0.0 
1.0059 -1.84692e-05 0.0 
0 0 0.0 
0.961746 -0.0447018 0.0 
0.218556 0.0691549 0.0 
0 0 0.0 
1.12219 0.0816395 0.0 
1.00705 0.000334723 0.0 
1.00771 0.000475267 0.0 
1.00582 -0.00532579 0.0 
1.00591 -4.0037e-05 0.0 
0.169656 0.0584275 0.0 
1.10634 0.0929351 0.0 
1.00445 -0.00132813 0.0 
1.00825 0.00185457 0.0 
0.0832797 -0.0130657 0.0 
0.0645398 -0.00212114 0.0 
1.00704 0.000632578 0.0 
0.999119 0.000422707 0.0 
0.184033 -0.0202474 0.0 
0.263008 0.187646 0.0 
0.802729 0.319068 0.0 
1.00461 0.10708 0.0 
0.833894 0.117435 0.0 
0.00271579 -6.04255e-05 0.0 
0.942558 0.267749 0.0 
1.01329 0.00362084 0.0 
1.00436 0 0.0 
1.03065 -0.0259896 0.0 
0.337083 0.00504043 0.0 
0.902582 -0.00392712 0.0 
0.019889 -0.00249665 0.0 
0.126978 -0.0114757 0.0 
0.829127 0.231971 0.0 
0.692444 0.00104613 0.0 
0.897534 0.0309731 0.0 
1.00104 -0.00132982 0.0 
0.893604 0.00302631 0.0 
0.963653 -0.28301 0.0 
1.00079 0 0.0 
0.0469219 -0.00259766 0.0 
1.00568 -0.000455778 0.0 
1.41613e-88 2.36163e-89 0.0 
0.0015999 -0.000457893 0.0 
0.924761 -0.305841 0.0 
0.997326 -0.000783987 0.0 
0.999356 0.000716695 0.0 
1.00662 0.000642708 0.0 
0 0 0.0 
1.00002 -0.000184009 0.0 
1.00432 -0.00335594 0.0 
1.00725 0.00040559 0.0 
1.00713 0.00111349 0.0 
1.01328 -0.000182998 0.0 
1.00752 0.000482844 0.0 
0.962314 -0.0565724 0.0 
0.0125896 -0.00220167 0.0 
1.00024 0.000356508 0.0 
0.493327 -0.0224225 0.0 
0.300418 0.126303 0.0 
1.005 -0.000223851 0.0 
1.01012 0.00418633 0.0 
0.0142886 0.000963648 0.0 
1.01819 0.0100503 0.0 
0.00344912 -0.0007284 0.0 
0.635733 0.0145833 0.0 
1.00577 -0.00125239 0.0 
0.704907 0.0906116 0.0 
0.283879 -0.0409451 0.0 
1.00135 0.00282732 0.0 
1.00597 0.000418724 0.0 
0.0216311 0.00351153 0.0 
1.00577 -0.000221196 0.0 
1.00808 -0.00152149 0.0 
0.300831 0.00833318 0.0 
1.00625 0.00036748 0.0 
1.00887 0.00191961 0.0 
1.00003 0.000300586 0.0 
0.939231 0.0504308 0.0 
1.0067 0.000794637 0.0 
1.00702 -0.00067378 0.0 
1.00625 -0.000366247 0.0 
0.999796 -0.000813155 0.0 
1.00802 -0.00710553 0.0 
1.0054 -0.000169441 0.0 
0.108071 -0.0153213 0.0 
1.00661 -0.000727645 0.0 
1 0.000232137 0.0 
0.125947 0.00834218 0.0 
1.0059 0.000228707 0.0 
0.384104 -0.0108364 0.0 
0.406121 -0.0978679 0.0 
0.0273811 -3.08347e-05 0.0 
1.00653 0.000783975 0.0 
0.997598 0.0016546 0.0 
0.0240653 -0.00257688 0.0 
1.00574 -0.000902601 0.0 
0 0 0.0 
0.999989 0.00029428 0.0 
0.787691 -5.5892e-05 0.0 
1.00723 0.000350481 0.0 
0.00343003 -0.000827355 0.0 
0.331892 -0.00586737 0.0 
1.00514 0.000136449 0.0 
1.0052 -0.00230307 0.0 
0.952334 0.00148056 0.0 
0.0127038 -0.00110234 0.0 
0.203582 0.0173456 0.0 
0.0871625 0.00142826 0.0 
0.81272 0.0141229 0.0 
1.00834 0.00128862 0.0 
1.00394 0.000252419 0.0 
0.00634462 -0.00115032 0.0 
0.0782307 -0.0041629 0.0 
0.260223 0.022854 0.0 
0.0176619 0.00136136 0.0 
0 0 0.0 
1.00428 0.000940633 0.0 
0.72294 -0.0308464 0.0 
0.868654 -0.0163648 0.0 
0.862252 0.0304802 0.0 
0.00316188 -0.000615257 0.0 
1 0 0.0 
0.0306732 -0.0168127 0.0 
0.705766 0.0132789 0.0 
1.07963 -0.0933988 0.0 
0.983241 0.139579 0.0 
1.00997 -0.00182426 0.0 
0.501551 -0.0128105 0.0 
0.881789 -0.000857122 0.0 
1.1252 0.0835333 0.0 
1.00741 0.000288412 0.0 
1.00571 -0.0449768 0.0 
1.00729 0.000361559 0.0 
1.00367 0.148003 0.0 
0.0569974 -0.000551313 0.0 
1.00505 -0.0024823 0.0 
1.00618 -0.000407185 0.0 
0.998892 0.00447482 0.0 
1.00462 0.00122685 0.0 
1.005 -0.00254375 0.0 
1.00173 -0.000505834 0.0 
1.04002 -0.00269032 0.0 
0.624852 0.00217165 0.0 
1.02541 0.0209188 0.0 
1.00596 -6.20785e-05 0.0 
1.00469 -0.00283994 0.0 
0.0137971 -0.00240707 0.0 
9.1245e-69 -2.73326e-69 0.0 
1.00289 -0.00224212 0.0 
1.00519 0.00145242 0.0 
0.99988 0.000975466 0.0 
0.861879 0.00194876 0.0 
0.561731 -0.0356865 0.0 
0.338177 0.0547415 0.0 
1.0404 0.0230698 0.0 
0.987942 0.00137399 0.0 
1.00436 0.00160817 0.0 
1 -0.000953417 0.0 
1.00599 -5.71488e-06 0.0 
0.62668 -0.00581057 0.0 
1.00653 0.00122213 0.0 
1.00397 -0.000317154 0.0 
0.0608048 -0.0131726 0.0 
1.0061 -0.000803413 0.0 
0.955443 0.0281646 0.0 
1.00351 -0.00045157 0.0 
1.00739 -0.000764899 0.0 
1.00622 0.00111305 0.0 
1.00839 0.00191452 0.0 
1.01251 0.02606 0.0 
0 0 0.0 
1.00286 -0.000681353 0.0 
1.00557 -8.65364e-05 0.0 
1.00559 9.18417e-05 0.0 
0.00643249 -0.00132217 0.0 
1.00451 -0.00156034 0.0 
1.00814 0.00202149 0.0 
1.00001 -0.000260644 0.0 
1.00424 -0.00297659 0.0 
0.861419 0.0313434 0.0 
0.274017 0.00446254 0.0 
1.00757 0.000314351 0.0 
1.00875 0.00017456 0.0 
0.941872 -0.00263521 0.0 
0.886648 -0.021048 0.0 
0.0259971 0.0012294 0.0 
0.0263877 -0.00178809 0.0 
1.00634 0.00113351 0.0 
1.0071 0.000371224 0.0 
0.40194 0.00500797 0.0 
0 0 0.0 
0.431636 0.00782937 0.0 
0 0 0.0 
0.996728 -0.00669163 0.0 
1.00691 -0.00131262 0.0 
1.00595 -4.8871e-05 0.0 
1.00493 -0.00147384 0.0 
1.0059 -0.00012288 0.0 
1.00324 -0.00259149 0.0 
1.00469 -0.00113979 0.0 
0.181602 0.000367567 0.0 
1.00596 0.000490137 0.0 
0 0 0.0 
1.0046 0.00106321 0.0 
1.00491 -0.00111278 0.0 
0.388541 0.00545998 0.0 
1.00461 -0.000189395 0.0 
0.934331 -0.000207978 0.0 
0.888428 0.0582069 0.0 
1.00485 0.00134618 0.0 
1.00372 -0.00093539 0.0 
0.999997 -0.00043966 0.0 
0.893261 0.0140568 0.0 
1.00495 -0.00067747 0.0 
1.00008 -0.00069289 0.0 
0.912938 -0.0161505 0.0 
1.00445 -0.000260275 0.0 
0.927544 -0.16424 0.0 
1.00128 -0.00669254 0.0 
1.00621 -0.000861393 0.0 
0 0 0.0 
1.05934 0.0948204 0.0 
0.997481 0.0123344 0.0 
0.417305 0.00196506 0.0 
1.00691 0.000152769 0.0 
0.138728 0.0368423 0.0 
0.434209 -0.00124383 0.0 
1.00796 -0.000158601 0.0 
0.00634995 0.000564987 0.0 
0.9947 -0.00147118 0.0 
1.006 -0.000338093 0.0 
0.99726 0.00194457 0.0 
1.00414 -0.00252703 0.0 
1.00013 -0.000259294 0.0 
1.00085 0.0168755 0.0 
0.0134709 0.000320118 0.0 
0.970944 -0.0376402 0.0 
1.00343 -0.00149443 0.0 
1.00673 -0.000684682 0.0 
0.00727216 -0.00113939 0.0 
1.01069 -0.000475119 0.0 
0.0363227 -0.00712503 0.0 
0.333725 -0.00158385 0.0 
0.353789 -0.00176719 0.0 
1.00571 0.000240873 0.0 
0.620723 0.0268984 0.0 
1.00687 4.69869e-05 0.0 
0.788049 0.141139 0.0 
0.999999 0.000126615 0.0 
1.0059 -0.00063423 0.0 
1.00625 0.000205967 0.0 
1.00469 -0.000252677 0.0 
1.00729 0.000142004 0.0 
1.00007 -0.000223296 0.0 
0.346447 0.00100161 0.0 
0.402896 0.0314941 0.0 
0.440849 -0.0161965 0.0 
0.79419 -0.00122838 0.0 
0.999832 -0.00028671 0.0 
0.997669 0.00434439 0.0 
0.00730512 -0.00121365 0.0 
1.00001 -0.000133575 0.0 
1.0051 7.37095e-05 0.0 
0.935554 -0.0037933 0.0 
0.0740042 0.0227235 0.0 
1.00629 -0.000975653 0.0 
1.00322 0.00220589 0.0 
1.00569 -0.000719267 0.0 
0.911063 -0.0563108 0.0 
1.00561 -0.000316386 0.0 
0.790685 0.00184831 0.0 
0.835486 -0.0515249 0.0 
1 -0.000255038 0.0 
0.322932 -0.234632 0.0 
0.389891 0.0863449 0.0 
0.0568245 -0.000723289 0.0 
0.950695 0.0324289 0.0 
1.00239 0.00981804 0.0 
0.000248732 3.09577e-05 0.0 
0.886263 0.0155181 0.0 
0.0072158 -0.000864339 0.0 
0.600173 0.0141825 0.0 
0.0123229 -0.000547491 0.0 
0.395633 -0.00961379 0.0 
0 0 0.0 
0.390448 0.138573 0.0 
0.0291213 0.000849944 0.0 
0.235979 0.0041863 0.0 
0.315643 0.0449598 0.0 
0.482886 0.0678538 0.0 
1.0041 -0.000248141 0.0 
1.00644 -0.000862201 0.0 
0.885431 -0.0547387 0.0 
0.015173 -0.0280629 0.0 
1.00525 0.000254361 0.0 
1.00725 0.000184931 0.0 
1.00307 -0.000358288 0.0 
0.514294 0.264099 0.0 
1.00435 0.00130929 0.0 
0.914785 -0.373152 0.0 
1.00552 0.000188634 0.0 
1.00453 -0.00227255 0.0 
0.698241 0.00432355 0.0 
1.11701 0.0424555 0.0 
0.904567 -0.0944426 0.0 
1.00562 0.00138012 0.0 
0.834747 0.291745 0.0 
1.00655 -0.000249104 0.0 
0.599524 -0.000397039 0.0 
1.00658 -0.000102851 0.0 
1.00438 -0.000316084 0.0 
0.999761 0.00185082 0.0 
0.0456086 -0.000214804 0.0 
1.00484 6.22322e-05 0.0 
0.978946 0.00337937 0.0 
1.00556 0 0.0 
0.88369 -0.0205565 0.0 
0.000108709 9.35296e-06 0.0 
0.0809312 0.054972 0.0 
1.00487 0.00121345 0.0 
0.307255 0.0680825 0.0 
0 0 0.0 
1.01029 -0.10473 0.0 
1.60566e-123 -2.07651e-124 0.0 
1.00762 -0.00192815 0.0 
0.518965 -0.0464446 0.0 
0.0221668 -0.00248125 0.0 
1.00682 -0.000912027 0.0 
0.996205 0.0086607 0.0 
0.964328 -0.00534613 0.0 
1.00451 0.000436982 0.0 
9.31741e-44 1.0413e-44 0.0 
1.01154 -0.013438 0.0 
0.0312998 -0.0163465 0.0 
0.948633 -0.0516292 0.0 
1.00453 -0.000535598 0.0 
1.00332 0 0.0 
1.00581 0.00020492 0.0 
0.914668 0.0302614 0.0 
1.00596 1.09256e-05 0.0 
0.656667 0.0110562 0.0 
0.612332 -0.431407 0.0 
1.00598 -0.00045039 0.0 
1.00774 0.000118438 0.0 
0.0359394 0.00363727 0.0 
1.00124 -0.00226383 0.0 
0.447534 -0.0175865 0.0 
0.0469738 -0.00805652 0.0 
0.999855 0.000379489 0.0 
1.00699 -0.000340511 0.0 
1.00713 -0.000533855 0.0 
1.0038 -0.00173359 0.0 
0.974192 -0.0229309 0.0 
0.992298 0.00217343 0.0 
1.00528 0.000535648 0.0 
1.02102 0.0974789 0.0 
0.970247 -0.0668123 0.0 
1.00097 -0.000852594 0.0 
1.00012 -0.000686978 0.0 
0.93992 -0.28356 0.0 
0.999478 0.000171575 0.0 
0 0 0.0 
0.1572 0.00863422 0.0 
1.00627 -0.00197873 0.0 
1.00464 -0.00347921 0.0 
1.00358 0.00444066 0.0 
0.999923 9.43037e-06 0.0 
1.00034 -0.000232391 0.0 
1.00029 0.000672784 0.0 
0.444057 0.174249 0.0 
0.192219 0.0666351 0.0 
1.0056 0.000453102 0.0 
1.00992 -0.00355389 0.0 