<VTKFile type="UnstructuredGrid" version="0.1" byte_order="LittleEndian">
  <UnstructuredGrid>
    <Piece NumberOfPoints="13593" NumberOfCells="26997">
      <Points>
        <DataArray type = "Float64" NumberOfComponents="3" format="ascii">
0 0 0.0 
14 0 0.0 
14 8 0.0 
0 8 0.0 
4.60213 3.95462 0.0 
3.90674 3.97638 0.0 
10.4908 7.41058 0.0 
0.382322 2.91093 0.0 
5.36318 4.11442 0.0 
5.18304 3.76271 0.0 
4.29249 4.04242 0.0 
4.07057 3.9639 0.0 
4.53824 7.43039 0.0 
4.75099 4.81105 0.0 
3.98741 4.04054 0.0 
3.98768 4.02653 0.0 
4.29389 4.0432 0.0 
4.05908 4.0108 0.0 
4.19582 3.98802 0.0 
4.30783 4.05952 0.0 
7.23049 2.80509 0.0 
4.47538 4.03375 0.0 
4.67405 4.10923 0.0 
4.1789 4.0308 0.0 
4.80484 4.03022 0.0 
4.61584 4.00791 0.0 
2.92108 4.80682 0.0 
12.1265 0 0.0 
4.16297 4.04588 0.0 
4.32046 1.78582 0.0 
4.2321 4.07437 0.0 
4.04668 4.34883 0.0 
4.13489 4.05432 0.0 
4.01478 4.01537 0.0 
3.63069 3.86563 0.0 
5.81069 5.00175 0.0 
4.05958 4.04241 0.0 
4.50371 4.01191 0.0 
0 3.36284 0.0 
4.93697 3.93496 0.0 
4.10541 3.98551 0.0 
4.51777 3.98493 0.0 
10.1734 4.4195 0.0 
4.0273 4.01367 0.0 
4.68458 4.02212 0.0 
4.71924 4.00853 0.0 
4.62342 4.01415 0.0 
6.40969 2.27914 0.0 
5.17517 4.1161 0.0 
2.13111 6.65479 0.0 
4.53917 3.9985 0.0 
4.10206 3.96084 0.0 
4.12607 4.05951 0.0 
0.762019 5.13086 0.0 
4.2483 4.03635 0.0 
4.0955 3.94899 0.0 
4.03444 4.04627 0.0 
4.00163 4.02959 0.0 
4.02005 3.99731 0.0 
5.23503 8 0.0 
4.30375 3.97965 0.0 
4.22554 4.07149 0.0 
5.55148 3.99152 0.0 
5.35828 4.09214 0.0 
12.0185 5.47289 0.0 
3.99474 4.00051 0.0 
4.17591 4.04501 0.0 
4.06521 4.00004 0.0 
4.51888 4.03101 0.0 
4.03302 4.01898 0.0 
3.95595 4.06684 0.0 
4.09718 3.98531 0.0 
4.15825 4.03374 0.0 
4.04672 4.0202 0.0 
4.94501 3.90266 0.0 
5.25233 4.08082 0.0 
4.54772 3.97659 0.0 
3.96947 4.02134 0.0 
4.09058 3.99334 0.0 
4.24261 3.98914 0.0 
3.96297 3.96024 0.0 
4.21254 3.97074 0.0 
4.31414 3.99343 0.0 
4.3499 4.01704 0.0 
4.11692 3.94964 0.0 
9.00321 4.86505 0.0 
3.95785 3.95439 0.0 
1.60222 4.99327 0.0 
4.02972 4.04518 0.0 
0.384822 4.35157 0.0 
3.97141 4.03046 0.0 
4.35454 4.03785 0.0 
3.97561 4.03322 0.0 
3.97816 4.02179 0.0 
4.04633 4.03304 0.0 
3.96767 4.02507 0.0 
4.53971 3.97638 0.0 
4.06016 4.03349 0.0 
3.84724 3.99971 0.0 
4.54225 3.97864 0.0 
4.94157 3.98326 0.0 
4.37615 3.99352 0.0 
4.54991 3.98013 0.0 
4.27518 3.99156 0.0 
13.4868 6.98366 0.0 
4.73521 7.52615 0.0 
10.4928 5.29986 0.0 
4.31505 3.99148 0.0 
5.2844 3.91484 0.0 
4.51322 3.98638 0.0 
4.06171 3.97809 0.0 
4.72673 4.01395 0.0 
4.11581 4.05249 0.0 
4.19587 4.09386 0.0 
4.01003 3.99134 0.0 
5.01113 4.1034 0.0 
4.14984 4.0386 0.0 
4.93904 4.11785 0.0 
4.52649 4.01384 0.0 
4.70958 7.08222 0.0 
13.8261 5.94601 0.0 
4.51963 4.01192 0.0 
6.37297 2.73989 0.0 
6.50541 6.65271 0.0 
4.0914 3.96216 0.0 
4.00988 3.97037 0.0 
5.20281 3.96498 0.0 
4.61498 3.93963 0.0 
4.37486 4.03906 0.0 
4.65935 4.04515 0.0 
12.6474 3.41509 0.0 
4.05312 3.99197 0.0 
13.7435 8 0.0 
4.11702 4.02719 0.0 
6.67367 0 0.0 
4.00932 4.01975 0.0 
6.82471 4.26136 0.0 
4.20354 4.03712 0.0 
4.53989 4.00593 0.0 
4.00323 4.0083 0.0 
6.49425 0.938237 0.0 
4.11024 3.98519 0.0 
11.5616 2.86331 0.0 
1.06432 1.49826 0.0 
4.58445 4.4988 0.0 
6.22735 7.50315 0.0 
2.61514 0.506135 0.0 
4.88569 3.98105 0.0 
4.18835 4.04526 0.0 
4.21359 4.04577 0.0 
8.95603 7.57132 0.0 
3.59766 3.72279 0.0 
4.22222 4.09636 0.0 
3.98122 4.01031 0.0 
5.29214 4.05791 0.0 
4.90839 4.00372 0.0 
0.161642 7.53999 0.0 
5.21662 3.31383 0.0 
4.1403 4.03691 0.0 
4.02301 3.98731 0.0 
4.00813 4.01182 0.0 
4.54778 4.01674 0.0 
4.08927 3.9549 0.0 
7.58442 5.24483 0.0 
4.46798 4.00874 0.0 
13.611 1.35207 0.0 
4.05099 4.00074 0.0 
4.09428 3.96323 0.0 
4.00964 3.98933 0.0 
13.0484 3.93508 0.0 
11.0142 2.68934 0.0 
4.18332 3.96996 0.0 
10.2824 1.17531 0.0 
4.26449 3.98943 0.0 
4.45409 2.45801 0.0 
12.0372 1.49526 0.0 
10.4486 3.52011 0.0 
3.10914 5.59567 0.0 
4.98619 3.93198 0.0 
4.53588 4.02648 0.0 
5.11537 3.91723 0.0 
4.05731 4.02647 0.0 
4.0627 4.03139 0.0 
6.38052 3.13775 0.0 
5.9291 5.15993 0.0 
4.05399 4.05242 0.0 
3.31161 1.01031 0.0 
9.4176 1.73395 0.0 
4.20327 3.97947 0.0 
5.24537 4.1668 0.0 
1.21408 1.2833 0.0 
4.46368 4.04155 0.0 
4.62527 3.98271 0.0 
4.07751 4.02608 0.0 
8.35832 2.9685 0.0 
13.4699 7.45697 0.0 
4.07014 4.09012 0.0 
4.01229 3.97705 0.0 
4.06076 3.97364 0.0 
7.42827 2.99581 0.0 
4.52953 3.9972 0.0 
4.09808 4.03387 0.0 
11.1865 7.25481 0.0 
4.00577 3.97873 0.0 
4.57455 4.08212 0.0 
4.47092 4.06223 0.0 
8.48286 5.04599 0.0 
4.04663 4.02704 0.0 
7.62224 2.88267 0.0 
7.22419 0.703495 0.0 
4.06436 4.05592 0.0 
4.32921 3.99209 0.0 
3.9183 4.01934 0.0 
3.10019 2.25281 0.0 
5.25032 1.89548 0.0 
4.53802 4.03292 0.0 
5.8599 3.0813 0.0 
4.04627 3.98687 0.0 
4.27576 3.95853 0.0 
1.21546 8 0.0 
4.55037 4.00822 0.0 
4.70511 4.01377 0.0 
4.6103 3.91602 0.0 
4.00773 4.00001 0.0 
4.30999 3.99239 0.0 
4.11575 4.03408 0.0 
4.56283 3.99857 0.0 
4.20274 4.07949 0.0 
4.06763 4.03044 0.0 
12.5015 1.14918 0.0 
4.09797 3.95385 0.0 
4.23052 4.09368 0.0 
4.20868 4.08388 0.0 
4.43247 4.03243 0.0 
4.12971 3.98692 0.0 
4.20816 3.9787 0.0 
4.21025 4.03415 0.0 
2.46915 6.85623 0.0 
4.00241 3.93803 0.0 
4.01425 3.98947 0.0 
3.76642 3.80106 0.0 
3.98799 3.95955 0.0 
4.62068 4.09144 0.0 
8.82235 8 0.0 
4.23781 4.09881 0.0 
4.36274 4.03651 0.0 
4.76297 3.98343 0.0 
4.69512 3.9114 0.0 
3.81905 4.22337 0.0 
4.52191 4.00133 0.0 
1.4823 7.50008 0.0 
4.06329 4.04721 0.0 
3.88358 3.53313 0.0 
4.18805 3.96826 0.0 
4.00414 3.99309 0.0 
4.35667 3.99329 0.0 
3.69148 4.54392 0.0 
0.417479 6.31883 0.0 
9.9721 3.6087 0.0 
4.21059 3.98877 0.0 
3.93277 3.96019 0.0 
6.98691 2.68677 0.0 
3.98977 4.04663 0.0 
3.99153 4.04254 0.0 
4.57553 4.01147 0.0 
13.1818 2.98063 0.0 
4.55172 4.00357 0.0 
4.04149 3.98321 0.0 
3.97296 4.00674 0.0 
11.3714 7.19716 0.0 
9.192 5.81999 0.0 
4.13223 5.72938 0.0 
3.53429 0 0.0 
4.67134 3.89044 0.0 
4.08953 4.02996 0.0 
4.14091 4.04918 0.0 
2.30378 3.03595 0.0 
4.48766 4.04193 0.0 
9.65837 4.25696 0.0 
7.40997 8 0.0 
4.02321 3.97317 0.0 
2.86414 6.59491 0.0 
14 1.00091 0.0 
4.96928 3.97464 0.0 
4.22492 3.96395 0.0 
4.77979 4.48533 0.0 
9.69483 7.24214 0.0 
6.78993 2.13526 0.0 
3.05866 3.50573 0.0 
0.846754 0.565038 0.0 
6.52781 1.51786 0.0 
3.22069 3.32353 0.0 
4.84915 4.03246 0.0 
4.02904 3.9664 0.0 
7.59973 7.22298 0.0 
12.6277 1.80732 0.0 
14 4.58149 0.0 
5.85073 0.410811 0.0 
13.0902 7.46595 0.0 
8.91842 0.967714 0.0 
13.1592 5.25121 0.0 
6.98728 5.60342 0.0 
3.90233 6.84054 0.0 
4.17968 4.04173 0.0 
3.92927 4.29317 0.0 
4.51225 4.03393 0.0 
3.96066 4.00697 0.0 
4.63883 4.00936 0.0 
4.96395 4.01931 0.0 
13.1661 5.68046 0.0 
13.7895 0 0.0 
4.10795 4.02897 0.0 
4.44506 4.02363 0.0 
11.4357 2.10385 0.0 
2.66718 0 0.0 
1.90365 8 0.0 
4.00791 4.0033 0.0 
4.0088 3.9805 0.0 
9.75515 2.36072 0.0 
4.2904 3.92587 0.0 
4.39542 3.99563 0.0 
4.02947 3.97325 0.0 
12.9422 5.39238 0.0 
4.6454 3.91884 0.0 
4.01129 4.00596 0.0 
3.49935 5.13977 0.0 
4.84809 6.69312 0.0 
4.06069 4.07856 0.0 
4.12608 4.0407 0.0 
4.01755 3.97046 0.0 
4.52386 4.04096 0.0 
9.91475 3.85114 0.0 
4.19209 4.05548 0.0 
6.42419 4.18044 0.0 
4.34927 4.71233 0.0 
4.05373 4.0206 0.0 
4.0593 4.0207 0.0 
12.1564 3.04229 0.0 
4.09065 3.95069 0.0 
4.11868 3.97589 0.0 
4.15516 3.94365 0.0 
4.01695 3.96353 0.0 
9.70352 1.23095 0.0 
8.32777 8 0.0 
11.8702 0.212102 0.0 
3.58143 4.19853 0.0 
4.55144 4.02797 0.0 
4.19635 4.04727 0.0 
5.06461 4.08435 0.0 
4.00437 3.9841 0.0 
10.6153 7.62373 0.0 
4.0134 3.97877 0.0 
3.03193 6.72582 0.0 
9.69213 3.27189 0.0 
4.01079 3.9893 0.0 
4.3867 4.07987 0.0 
4.36156 4.08272 0.0 
2.48952 3.59766 0.0 
4.19061 4.0503 0.0 
4.90953 3.97583 0.0 
4.20001 4.03326 0.0 
4.21339 4.02989 0.0 
4.21639 4.03358 0.0 
4.70659 4.0789 0.0 
3.4504 4.08853 0.0 
11.5792 7.84461 0.0 
0.551344 1.2516 0.0 
4.02575 3.96118 0.0 
4.55551 3.99979 0.0 
6.49849 5.21743 0.0 
6.64238 0.26606 0.0 
10.7133 0.399781 0.0 
8.4574 2.322 0.0 
0.195775 6.6876 0.0 
0.348252 3.38746 0.0 
3.1463 3.72717 0.0 
11.8351 6.74811 0.0 
3.84669 3.90466 0.0 
4.1127 3.96242 0.0 
13.6945 7.80328 0.0 
4.15116 3.93854 0.0 
4.13176 4.07898 0.0 
10.2186 2.28825 0.0 
14 3.14675 0.0 
4.21594 3.97337 0.0 
4.85957 4.01386 0.0 
11.2285 4.89274 0.0 
4.00279 3.99128 0.0 
4.05385 4.00986 0.0 
14 3.84943 0.0 
10.8961 4.27431 0.0 
3.09488 8 0.0 
6.32476 7.00417 0.0 
12.5996 5.63737 0.0 
4.64409 4.00438 0.0 
4.29631 3.98443 0.0 
13.2903 7.45798 0.0 
1.77695 6.77578 0.0 
4.44622 3.99083 0.0 
4.1283 4.05439 0.0 
8.82713 4.16849 0.0 
4.30033 6.55304 0.0 
1.94587 1.61999 0.0 
10.0323 4.54406 0.0 
4.01461 4.01826 0.0 
3.96806 4.01296 0.0 
11.0968 5.75296 0.0 
4.55406 3.99831 0.0 
3.92693 3.99777 0.0 
4.08328 4.07116 0.0 
4.08948 3.98544 0.0 
4.55265 4.00324 0.0 
4.5467 4.03146 0.0 
6.21686 4.34929 0.0 
4.15161 4.04469 0.0 
4.53595 4.04072 0.0 
7.20657 5.05296 0.0 
3.05391 4.40989 0.0 
4.20771 3.95406 0.0 
13.5337 6.38237 0.0 
5.0604 3.97687 0.0 
4.53323 4.0151 0.0 
12.6381 7.48703 0.0 
0.198711 3.79297 0.0 
4.72583 0.194576 0.0 
3.90471 2.31823 0.0 
4.47462 3.99748 0.0 
5.30927 0.171783 0.0 
3.84336 4.30646 0.0 
3.77134 4.0081 0.0 
3.90872 3.96016 0.0 
4.73668 3.89169 0.0 
4.04877 3.98924 0.0 
3.96886 4.00175 0.0 
4.64006 3.99672 0.0 
2.89315 5.49872 0.0 
4.96907 4.10551 0.0 
11.8107 0.651755 0.0 
12.4016 3.01856 0.0 
4.82507 4.1106 0.0 
5.99021 4.04483 0.0 
4.15101 4.79278 0.0 
0.347962 1.57688 0.0 
4.48689 3.99576 0.0 
6.73412 3.55133 0.0 
7.00233 6.47926 0.0 
7.78364 0 0.0 
6.32437 6.34013 0.0 
7.83547 2.82767 0.0 
5.62592 4.80931 0.0 
4.7383 3.87602 0.0 
4.34195 4.03708 0.0 
3.6968 5.25673 0.0 
1.64832 6.43608 0.0 
13.7604 0.5867 0.0 
4.23202 4.04646 0.0 
0.845864 1.62601 0.0 
4.02586 3.98561 0.0 
4.25841 3.96952 0.0 
4.03014 4.02376 0.0 
4.1152 4.03957 0.0 
4.0104 4.03331 0.0 
4.05506 4.08724 0.0 
4.89402 3.94006 0.0 
1.1914 3.57636 0.0 
4.06561 4.03074 0.0 
4.30989 4.04149 0.0 
12.4885 4.91995 0.0 
10.151 2.94088 0.0 
7.19396 5.74117 0.0 
6.11869 4.7233 0.0 
4.47104 4.01756 0.0 
4.00565 4.00149 0.0 
4.01836 4.01176 0.0 
[...]
<PointData>
  <DataArray type = "Float64" Name="Vitesse" NumberOfComponents="3" format="ascii">
1 0 0.0 
1.00267 0 0.0 
1.00051 0 0.0 
1 0 0.0 
0.634204 0.0340579 0.0 
0.882395 -0.0377771 0.0 
1.00396 -0.000481221 0.0 
0.999969 -0.000135905 0.0 
0.931234 -0.0121797 0.0 
1.00977 0.00663556 0.0 
0.044533 -0.00154921 0.0 
0.874684 -0.0947483 0.0 
1.00522 0.000717561 0.0 
1.02103 0.000855199 0.0 
0.774281 0.197532 0.0 
0.682511 0.189194 0.0 
0.0605728 -0.00301954 0.0 
0 0 0.0 
0.0207591 0.000480044 0.0 
0.406285 -0.0154256 0.0 
1.0073 0.000396993 0.0 
0.133339 -0.0159655 0.0 
0.959364 -0.0453508 0.0 
0 0 0.0 
0.371607 -0.0172979 0.0 
0.117892 -0.0018293 0.0 
0.99745 0.00677254 0.0 
1.00414 0 0.0 
0.101012 0.00705674 0.0 
1.00517 -0.0030713 0.0 
0.803203 0.0257972 0.0 
1.01893 0.056314 0.0 
0.538567 0.0594903 0.0 
4.65554e-10 1.65799e-10 0.0 
0.971947 -0.0110318 0.0 
1.00998 -0.00287876 0.0 
0.691487 0.182787 0.0 
6.10659e-06 -7.00917e-07 0.0 
1 0 0.0 
0.804251 0.018718 0.0 
0.0143813 0.00086357 0.0 
0.210731 0.00584336 0.0 
1.00742 -0.00258511 0.0 
0 0 0.0 
0.229393 -0.0145254 0.0 
0.234633 -0.00075318 0.0 
0.132192 -0.00994202 0.0 
1.00737 -0.000114287 0.0 
0.943234 -0.0160981 0.0 
1.00116 0.00171542 0.0 
0.0128592 -8.87698e-06 0.0 
0.816272 -0.0530768 0.0 
0.761535 0.104402 0.0 
0.999926 0.000702167 0.0 
0 0 0.0 
1.03237 -0.0969841 0.0 
0.924834 0.31646 0.0 
0.720149 0.309336 0.0 
0 0 0.0 
1.00565 0 0.0 
0.221646 0.00584123 0.0 
0.752398 0.0253397 0.0 
0.602398 0.00198101 0.0 
0.85739 -0.0129442 0.0 
1.0025 -0.00359135 0.0 
0.279619 -0.174507 0.0 
0.0397415 0.0013331 0.0 
0 0 0.0 
0.146415 -0.0183039 0.0 
0 0 0.0 
0.863779 0.110347 0.0 
0.0183681 0.00158519 0.0 
0 0 0.0 
0 0 0.0 
0.948321 0.0166429 0.0 
0.807674 -0.0157574 0.0 
0.347485 0.015077 0.0 
0.725565 0.0673814 0.0 
0 0 0.0 
0.0264628 0.000981097 0.0 
0.859702 -0.137415 0.0 
0.391449 0.0045234 0.0 
8.92429e-06 6.19012e-07 0.0 
0 0 0.0 
0.981154 -0.0676359 0.0 
1.00688 -0.00171539 0.0 
0.874329 -0.124859 0.0 
0.999563 0.00177183 0.0 
0.912802 0.324084 0.0 
0.99996 0.000203594 0.0 
0.750419 0.107055 0.0 
0.0481273 -0.00470676 0.0 
0.751022 0.131386 0.0 
0.686424 0.104826 0.0 
0.431766 0.133035 0.0 
0.744045 0.0768946 0.0 
0.345983 0.0126763 0.0 
0.212746 0.0501451 0.0 
0.918335 -0.00451061 0.0 
0.31528 0.0120858 0.0 
0.469789 0.01047 0.0 
0.0268096 0.00105508 0.0 
0.298856 0.0140192 0.0 
0.000338642 3.59068e-05 0.0 
1.00077 -0.000898762 0.0 
1.00539 0.000518507 0.0 
1.00551 -0.00268257 0.0 
0.0248446 0.000816195 0.0 
0.88641 0.00929558 0.0 
0.187372 0.00509254 0.0 
0.379815 -0.03084 0.0 
0.244925 -0.00593028 0.0 
0.582578 0.0840255 0.0 
1.0967 0.0879007 0.0 
0.0733012 -0.028981 0.0 
0.910357 -0.0220479 0.0 
1.52915e-165 6.68953e-167 0.0 
0.959581 -0.0247929 0.0 
0.025598 -0.00429597 0.0 
1.0058 0.0010408 0.0 
0.999885 -0.00161164 0.0 
0.0111523 -0.00199547 0.0 
1.00782 0.000239274 0.0 
1.00672 -0.000389399 0.0 
0.823471 -0.0629034 0.0 
0.963766 -0.325172 0.0 
0.637366 0.00941602 0.0 
0.787735 0.0329112 0.0 
0.0895984 -0.00928633 0.0 
0.396319 -0.0358684 0.0 
1.00895 0.00209006 0.0 
0 0 0.0 
1.00071 0 0.0 
0 0 0.0 
1.00571 0 0.0 
0.529034 0.307761 0.0 
1.00608 -0.00243936 0.0 
0 0 0.0 
0.00252027 -0.000561946 0.0 
0.0782081 0.0812691 0.0 
1.00601 -0.000218366 0.0 
0.0206463 0.000430162 0.0 
1.00496 0.00188847 0.0 
1.00012 -0.000553321 0.0 
1.03324 -0.000801025 0.0 
1.00608 -2.9277e-05 0.0 
1.00143 -0.000610614 0.0 
0.460205 0.0137122 0.0 
0.045186 0.00228113 0.0 
0.0508484 -0.00120703 0.0 
1.00494 -0.000231034 0.0 
0.981864 -0.0148377 0.0 
1.08834 0.0641351 0.0 
0.604935 0.0330674 0.0 
0.691819 -0.0128143 0.0 
0.379444 0.00109089 0.0 
1 3.80639e-05 0.0 
1.01195 0.00128964 0.0 
0 0 0.0 
0.153579 -0.0395669 0.0 
0.0803782 0.0455972 0.0 
0.0604906 -0.0120124 0.0 
0.979718 -0.0924802 0.0 
1.00723 -0.00153845 0.0 
4.15584e-289 -2.91138e-290 0.0 
1.00305 0.00118768 0.0 
0 0 0.0 
0.782577 -0.0541726 0.0 
0.360812 -0.149493 0.0 
0.972338 -0.00118075 0.0 
1.00543 0.00164721 0.0 
0.422219 0.00284203 0.0 
1.00533 0.000457464 0.0 
0.0314855 0.00155637 0.0 
1.0075 -0.00493371 0.0 
1.00441 0.00102066 0.0 
1.00779 0.00275511 0.0 
1.00229 0.00586991 0.0 
0.822177 0.017073 0.0 
0.120624 -0.0172016 0.0 
0.886745 0.0120169 0.0 
0 0 0.0 
0.0147453 0.00106326 0.0 
1.00839 0.000350934 0.0 
1.00945 -0.00226408 0.0 
0.962041 0.273954 0.0 
1.00243 -0.00156795 0.0 
1.00597 0.000578806 0.0 
0.199958 0.00444746 0.0 
1.00341 -0.0128857 0.0 
1.0002 -0.000574116 0.0 
0.213057 -0.0219605 0.0 
0.298141 0.0272595 0.0 
0 0 0.0 
1.00716 0.000757705 0.0 
1.00088 -0.000475952 0.0 
1.0453 0.21092 0.0 
0.930614 -0.339042 0.0 
0.591195 -0.0585539 0.0 
1.00742 0.000515814 0.0 
0.0302005 0.000952637 0.0 
0 0 0.0 
1.00333 -0.000749606 0.0 
0.895743 -0.385256 0.0 
0.788565 -0.0521767 0.0 
0.512355 -0.0371451 0.0 
1.00709 -0.00163312 0.0 
1.52057e-05 4.96472e-06 0.0 
1.00723 0.000488946 0.0 
1.00594 -8.87473e-06 0.0 
0.977866 0.252685 0.0 
0.023596 0.000305993 0.0 
0.856036 0.0116101 0.0 
1.00124 -0.00404429 0.0 
1.00691 -0.00163426 0.0 
0.182709 -0.0236127 0.0 
1.00887 0.0005184 0.0 
7.19858e-06 -1.38463e-07 0.0 
0.610667 0.0032381 0.0 
1.00042 0 0.0 
0.0196684 -0.0048116 0.0 
0.223733 -0.00575722 0.0 
0.950425 0.0267895 0.0 
0 0 0.0 
0.00752301 0.000590073 0.0 
0 0 0.0 
0.0343062 0.0129794 0.0 
0.951435 0.0614072 0.0 
0 0 0.0 
1.00399 0.000860629 0.0 
0.969646 -0.0816166 0.0 
1.0648 0.0551383 0.0 
1.00101 0.0625806 0.0 
0.0758178 -0.00922479 0.0 
5.12538e-05 -1.75639e-07 0.0 
0.217848 0.00445998 0.0 
0 0 0.0 
1.0017 0.00170873 0.0 
0.96581 -0.189569 0.0 
0.154158 -0.0292611 0.0 
0.970529 -0.0277649 0.0 
0.887108 -0.218333 0.0 
0.866597 -0.0504957 0.0 
1.00493 0 0.0 
1.08769 0.0539862 0.0 
0.0406122 -0.00366202 0.0 
0.381798 0.0176196 0.0 
0.950163 0.0281603 0.0 
0.97046 0.0433745 0.0 
1.88619e-124 9.33155e-126 0.0 
1.00059 0.000418937 0.0 
0.816729 0.211673 0.0 
0.999248 -0.0272805 0.0 
0.459901 0.00202984 0.0 
0.253363 -0.175488 0.0 
0.0196973 0.00112167 0.0 
0.996981 0.0236121 0.0 
1.00003 0.000334645 0.0 
1.00844 0.00232202 0.0 
0.0131043 -6.39947e-05 0.0 
0.875579 -0.07717 0.0 
1.0074 0.000307339 0.0 
0.804546 0.205452 0.0 
0.787112 0.217406 0.0 
0.0577925 -0.018217 0.0 
1.0043 0.00277251 0.0 
0.0029642 -0.00062747 0.0 
0.233066 -0.0270424 0.0 
0.675222 -0.0143008 0.0 
1.00314 -0.000838687 0.0 
1.006 -0.00126056 0.0 
1.00807 0.00550831 0.0 
1.00272 0 0.0 
1.01006 0.0239247 0.0 
0 0 0.0 
0.305189 0.0275812 0.0 
0.998494 -0.00208562 0.0 
0.238959 -0.0247976 0.0 
0.993519 -0.0022683 0.0 
1.00561 0 0.0 
0.950251 -0.259004 0.0 
1.00239 0.00250335 0.0 
1.00267 0.000869574 0.0 
0.53084 0.0130462 0.0 
0.532386 0.00234398 0.0 
1.02579 -0.00789117 0.0 
1.00459 -0.000477342 0.0 
1.00706 2.59768e-05 0.0 
0.993761 -0.00461378 0.0 
1.00013 -0.000181645 0.0 
1.00649 -0.000239224 0.0 
0.995257 -0.00720667 0.0 
0.412688 -0.0165657 0.0 
1.02128 -0.245262 0.0 
1.00574 -0.000353501 0.0 
1.00402 0.00140886 0.0 
0.998236 -0.0021896 0.0 
1.00549 -0.000233616 0.0 
1.00124 -0.000519047 0.0 
1.00574 0.000266668 0.0 
0.999989 -0.0032202 0.0 
1.0075 -0.00134888 0.0 
1.00471 0.00208163 0.0 
1.46192e-48 6.96836e-50 0.0 
0.992766 0.0588035 0.0 
0.169765 -0.0201686 0.0 
0.747327 -0.0128314 0.0 
0.148152 -0.0022234 0.0 
0.420719 -0.00712608 0.0 
1.00033 -0.00250593 0.0 
1.00285 0 0.0 
0 0 0.0 
0.00996698 -0.00125522 0.0 
1.00496 0.00129473 0.0 
1.00152 0 0.0 
1.00102 0 0.0 
0 0 0.0 
0.878271 -0.367527 0.0 
1.00624 0.000953456 0.0 
0.994671 -0.0164782 0.0 
1.37707e-05 9.43034e-07 0.0 
0.899071 -0.208293 0.0 
1.00051 -0.00321738 0.0 
0.927606 0.0290848 0.0 
0 0 0.0 
1.00309 0.0104414 0.0 
1.00665 0.00132143 0.0 
1.03209 0.235531 0.0 
-2.82891e-105 -5.47374e-107 0.0 
0.994831 -0.302377 0.0 
0.259033 -0.0279984 0.0 
0.938024 0.00204266 0.0 
0.376448 0.0147374 0.0 
0.993896 -0.00402142 0.0 
1.02502 0.0134324 0.0 
0 0 0.0 
0 0 0.0 
1.00408 0.00218149 0.0 
1.0274 -0.100978 0.0 
0.312386 -0.00161693 0.0 
0.979343 -0.0462426 0.0 
1.0066 -0.280549 0.0 
1.00559 0.000409854 0.0 
1.00519 0 0.0 
1.00433 0.000136335 0.0 
0.977574 0.0158146 0.0 
0.147548 -0.0236573 0.0 
0.103401 0.00146352 0.0 
0.820411 -0.0214486 0.0 
0.805007 -0.413594 0.0 
1.00383 -0.000318467 0.0 
0.892393 -0.319045 0.0 
1.00275 0.00233467 0.0 
1.00715 0.00148442 0.0 
0.312495 -0.112666 0.0 
0.771405 -0.0283854 0.0 
0.821836 -0.021833 0.0 
0.996491 -0.00109578 0.0 
0.208184 0.00707611 0.0 
0.503714 0.0140225 0.0 
0 0 0.0 
0 0 0.0 
0 0 0.0 
0.76418 -0.0441157 0.0 
0.980898 0.00548655 0.0 
1.00286 -0.000163102 0.0 
1.00004 -0.000234468 0.0 
1.03637 -0.253046 0.0 
7.58514e-08 4.43145e-10 0.0 
1.00816 -0.00193364 0.0 
1.00575 -5.53953e-05 0.0 
1.00498 0.000174564 0.0 
1.00674 0.000608498 0.0 
1 0.000128723 0.0 
0.999969 -3.92652e-05 0.0 
0.990576 -0.00334039 0.0 
1.00266 -0.001438 0.0 
0.9424 -0.0379714 0.0 
0.739861 -0.0364772 0.0 
1.00073 -0.000153175 0.0 
1.02911 -0.0556598 0.0 
1.07092 0.153747 0.0 
1.00591 0.00103996 0.0 
1.00324 0.00406237 0.0 
0.33331 0.005096 0.0 
0.348198 -0.00495861 0.0 
1.0052 -0.00444896 0.0 
0.499867 -0.352543 0.0 
0 0 0.0 
0.989617 0.00451971 0.0 
0.993088 -0.00567508 0.0 
1.00274 0 0.0 
1.00644 -0.000160352 0.0 
1.0012 -0.00308511 0.0 
0.162303 0.0041 0.0 
0.134704 0.00406306 0.0 
1.00105 -0.000500409 0.0 
1.00078 0.0012565 0.0 
0.0951607 0.00213933 0.0 
0.577629 0.0712678 0.0 
0.9592 -0.00331961 0.0 
1.00608 0.00237085 0.0 
1.00045 -0.0013103 0.0 
1.0083 -0.00305827 0.0 
0.299831 0.144392 0.0 
0.713512 0.0218379 0.0 
1.00415 -0.00261559 0.0 
0.0194446 -0.000293064 0.0 
0.844602 -0.0237552 0.0 
1.05873 0.225526 0.0 
7.73531e-06 8.31534e-08 0.0 
0.00261408 -0.000517496 0.0 
0.175896 -0.0248171 0.0 
1.00795 -0.00372258 0.0 
0.0843229 0.00307287 0.0 
0.266109 -0.0297603 0.0 
1.00747 -0.00179072 0.0 
0.993604 0.00668377 0.0 
0.744874 -0.00883284 0.0 
1.00047 -0.00143929 0.0 
0.543889 0.0100415 0.0 
0.037696 -0.00635016 0.0 
1.00172 -0.000539906 0.0 
0.999992 2.90035e-05 0.0 
1.00443 -0.000237524 0.0 
1.00447 -0.00548242 0.0 
0.00771509 0.000631591 0.0 
1.00505 -0.000152716 0.0 
0.984953 0.0443874 0.0 
0.944569 0.00100759 0.0 
0.892399 -0.0518295 0.0 
0.996129 0.0233426 0.0 
0 0 0.0 
0.706642 -0.0459897 0.0 
0.190545 0.0129658 0.0 
1.0013 0.00540285 0.0 
0.919804 -0.0251185 0.0 
1.00441 0.000414528 0.0 
1.00364 0.00230188 0.0 
0.944903 -0.033579 0.0 
0.710083 -0.00575059 0.0 
1.01707 0.0173357 0.0 
1.00001 -0.000169511 0.0 
0.0366672 0.00101495 0.0 
1.00821 0.000805901 0.0 
1.0066 -0.000663555 0.0 
1.00575 0 0.0 
1.00722 -0.000500688 0.0 
1.00717 0.000547541 0.0 
1.011 -0.00394627 0.0 
1.01524 0.0208152 0.0 
0.0201624 -0.00187562 0.0 
1.00552 0.00995892 0.0 
1.00057 0.00144208 0.0 
1.00289 0.000500523 0.0 
0.0787564 -0.00154327 0.0 
1.00006 -0.000443923 0.0 
0.251532 -0.0480304 0.0 
0.407453 0.00564437 0.0 
0.181853 0.0616571 0.0 
1.39912e-276 1.91506e-277 0.0 
0.784642 0.342736 0.0 
1.01941 0.220211 0.0 
0.771211 0.0207166 0.0 
0.999497 -5.6371e-05 0.0 
3.05348e-48 7.47528e-49 0.0 
0.0490196 -0.00322817 0.0 
0.999588 -0.00489654 0.0 
1.00648 0.00144909 0.0 
1.0072 -0.0012223 0.0 
1.00908 -0.00336894 0.0 
2.75908e-05 -1.684e-06 0.0 
-1.48652e-287 8.44008e-288 0.0 
0 0 0.0 
1.0058 -8.04825e-06 0.0 
0.00764424 -0.00141774 0.0 
1.00604 -0.000230018 0.0 
0.130436 -0.0174951 0.0 
1.00736 -0.0015728 0.0 
1.00718 0.000451576 0.0 
1.0069 0.000743941 0.0 
1.00747 0.00111974 0.0 
0.0234521 0.000891731 0.0 
1.00581 -2.07432e-05 0.0 
1.00221 0.000777454 0.0 
0.176865 -0.00722954 0.0 
1.00444 -0.00131776 0.0 
0.227728 0.0227551 0.0 
1.00814 0.00488887 0.0 
0.064373 -0.00212023 0.0 
1.00679 0.00122766 0.0 
1.00344 0.00374061 0.0 
1.00161 0.205343 0.0 
0.883455 0.0252103 0.0 
1.00673 0.00068289 0.0 
0.802747 0.319137 0.0 
1.00166 0.000228733 0.0 
1.00613 -0.000338963 0.0 
0.085995 0.00580502 0.0 
0.452901 -0.307319 0.0 
0.755217 0.0118467 0.0 
0.315303 0.0439735 0.0 
0.696314 -0.00531961 0.0 
1.00565 -5.48989e-05 0.0 
0.902977 -0.00395553 0.0 
0.0205896 -0.00281695 0.0 
1.03032 0.0128135 0.0 
0.246179 -0.0108644 0.0 
0.692699 0.000790116 0.0 
1.00011 0.000801881 0.0 
0.58047 -0.0485126 0.0 
0.81542 -0.0265744 0.0 
0.963635 -0.282928 0.0 
1.02387 0.0822948 0.0 
1.07177 0.0755425 0.0 
1.00548 -0.000588053 0.0 
1.1222 0.081841 0.0 
1.00867 -0.00150211 0.0 
0.924732 -0.305764 0.0 
0.997323 -0.00077962 0.0 
0.999357 0.000719297 0.0 
1.00661 0.000619718 0.0 
0 0 0.0 
1.00002 -0.000183731 0.0 
3.61805e-05 -9.88437e-06 0.0 
0.999095 -0.00444839 0.0 
1.00627 0.00185226 0.0 
1.00021 -0.000713183 0.0 
0.213009 0.0678231 0.0 
1.00508 0.00218615 0.0 
0.123355 0.0730942 0.0 
1.00024 0.000356504 0.0 
3.46061e-06 4.39202e-06 0.0 
0.0666176 0.00159743 0.0 
1.00464 -0.000319038 0.0 
1.01012 0.00416815 0.0 
1.00926 -0.00163682 0.0 
1.01818 0.0100469 0.0 
1.00589 0.000769326 0.0 
0.635422 0.0143321 0.0 
1.03057 -0.0259786 0.0 
0.705033 0.0906379 0.0 
0.999977 6.93142e-06 0.0 
1.00131 0.00284627 0.0 
0.961779 -0.0447179 0.0 
0.997554 -0.0028072 0.0 
1.00464 0.000535767 0.0 
1.00871 -0.00284306 0.0 
0.0131739 -0.00238475 0.0 
1.00583 0.000557743 0.0 
1.00884 0.00195875 0.0 
1.00627 -0.000961484 0.0 
1.00003 0.000304126 0.0 
1.00598 0.00121802 0.0 
1.00699 -0.000618277 0.0 
1.00617 -0.000436332 0.0 
0.0148802 0.000935935 0.0 
1.00811 -0.00713513 0.0 
1.00536 -0.000163624 0.0 
0.0132389 0.0003939 0.0 
1.0076 -0.00236962 0.0 
1.00859 -0.00269867 0.0 
0.0184322 0.000381438 0.0 
0.0194739 -0.00231263 0.0 
0.384313 -0.0108359 0.0 
1.00479 -0.000614536 0.0 
0.0289711 0.00232791 0.0 
1.00599 -0.000545064 0.0 
1.00158 0.00244085 0.0 
0.9997 0.00505247 0.0 
0.644543 -0.0271104 0.0 
0 0 0.0 
0.962347 -0.0565848 0.0 
1.06561 0.0186688 0.0 
0.283988 -0.0409564 0.0 
0.0888404 0.00128783 0.0 
0.332064 -0.00587277 0.0 
1.00454 0.000228665 0.0 
0.90608 -0.0266404 0.0 
1.01346 -0.00624523 0.0 
1.00366 0 0.0 
0.203638 0.0173507 0.0 
0.00631652 0.000125569 0.0 
0.977341 0.0018667 0.0 
0.730148 -0.0166637 0.0 
1.00394 0.000251549 0.0 
1.0131 -0.00561271 0.0 
0.285389 0.0175331 0.0 
1.28819e-05 3.7739e-07 0.0 
1 0.000231973 0.0 
0 0 0.0 
0.407793 0.0266906 0.0 
0.256016 0.0225853 0.0 
0.868881 -0.016428 0.0 
0.862361 0.0304522 0.0 
0.266327 -0.0109811 0.0 
0.186164 -0.0241667 0.0 
0.030738 -0.0168272 0.0 
0 0 0.0 
0.0951571 0.0209176 0.0 
1.00557 -0.001387 0.0 
1.00082 -0.00177349 0.0 
0.833713 0.117421 0.0 
1.08048 -0.134907 0.0 
0.981978 0.00152211 0.0 
0.99912 0.000425575 0.0 
1.00742 0.000422136 0.0 
1.00584 -0.0449905 0.0 
1.00721 0.000992297 0.0 
1.00079 0 0.0 
0.984296 0.0032118 0.0 
1.00504 -0.00246673 0.0 
0.00140164 -0.000109443 0.0 
0.998895 0.00447592 0.0 
1.00335 0.00200622 0.0 
0.8128 0.0140969 0.0 
1.00173 -0.000504661 0.0 
0.0206684 0.000299895 0.0 
1.00104 -0.00132769 0.0 
0.0301575 -0.00459586 0.0 
1.00589 -7.69415e-05 0.0 
1.00468 -0.00282613 0.0 
1.00836 0.00134231 0.0 
0.723203 -0.0308589 0.0 
1.00024 -0.00184662 0.0 
1.10648 0.0963365 0.0 
0.0141896 -0.00246517 0.0 
1.00911 -0.00269695 0.0 
1.00321 -0.000385276 0.0 
0 0 0.0 
0.398248 0.0198288 0.0 
0.0186138 0.00111807 0.0 
1.0075 0.00106269 0.0 
1 -0.000951307 0.0 
0.883052 0.242884 0.0 
0.0329513 -0.00359511 0.0 
1.00556 0.00172927 0.0 
1.1256 0.0850185 0.0 
1.00523 -0.00284204 0.0 
1.00586 -0.00114341 0.0 
0.955535 0.0281524 0.0 
0.118844 0.0322597 0.0 
1.00737 -0.000844938 0.0 
1.00621 0.00109738 0.0 
0.999795 -0.000810762 0.0 
0.184702 -0.0201912 0.0 
0.998579 -0.00187511 0.0 
0.941764 0.268129 0.0 
0.0146224 -0.000948745 0.0 
0.0500065 0.00148817 0.0 
1.04004 -0.00270274 0.0 
1.00654 -0.000847157 0.0 
1 0 0.0 
1.00001 -0.000260184 0.0 
1.00551 0.000318945 0.0 
0.861524 0.0313389 0.0 
0.979775 0.139962 0.0 
1.0076 0.000449286 0.0 
1.00874 0.000135064 0.0 
1.00633 -0.00055269 0.0 
2.15669e-05 -3.37103e-06 0.0 
0.0275212 0.000325242 0.0 
0.0037547 -0.000671404 0.0 
0.166726 0.0507382 0.0 
1.00692 0.000820225 0.0 
0.402101 0.00501969 0.0 
0.0332001 0.00176802 0.0 
0.432004 0.00802605 0.0 
0 0 0.0 
0.992026 -0.00400632 0.0 
1.00643 -0.00300913 0.0 
1.00585 -1.56907e-05 0.0 
1.00279 -0.00283129 0.0 
1.0058 -0.000148826 0.0 
1.00019 -0.00231967 0.0 
1.00293 -0.00220276 0.0 
0.181687 0.000352622 0.0 
1.0058 0.00115236 0.0 
0 0 0.0 
1.00326 0.00171981 0.0 
1.00327 -0.00225727 0.0 
0.388701 0.00547084 0.0 
1.00404 -0.000326043 0.0 
1.00755 0.000409401 0.0 
0.078326 0.000770298 0.0 
0.406219 -0.0978677 0.0 
1.00192 -0.00137393 0.0 
1.00546 0.000553998 0.0 
0.893372 0.0140331 0.0 
0.493578 -0.0224322 0.0 
1.00008 -0.000691385 0.0 
0.705849 0.013233 0.0 
1.00371 -0.000488302 0.0 
0.927559 -0.164201 0.0 
1.00129 -0.00669112 0.0 
0.816363 0.126924 0.0 
0 0 0.0 
0.274162 0.00499016 0.0 
0.0609893 -0.013161 0.0 
0.417479 0.00197668 0.0 
1.00154 -0.0038114 0.0 
0.997601 0.00165858 0.0 
0.433823 -0.000855131 0.0 
1.00795 -0.000205831 0.0 
1.00443 -0.00305846 0.0 
1.04079 0.0239122 0.0 
1.00589 -0.000407759 0.0 
0.561997 -0.0357185 0.0 
1.00414 -0.00251662 0.0 
0.036129 -0.000252012 0.0 
1.00086 0.0168758 0.0 
0.980412 0.00352405 0.0 
0.0468909 -0.00259502 0.0 
1.00119 -0.00175423 0.0 
1.00667 -0.000784856 0.0 
0 0 0.0 
1.01096 -0.000633868 0.0 
0.0031539 -0.000603656 0.0 
0.333888 -0.00158453 0.0 
0.353963 -0.00176213 0.0 
1.00527 0.000305933 0.0 
0.0365079 -0.00712213 0.0 
1.0068 0.000202438 0.0 
0.787875 0.14114 0.0 
1.00449 -0.00272861 0.0 
1.00587 -0.000604988 0.0 
1.00596 0.00039309 0.0 
0.995772 -0.000193608 0.0 
1.00727 0.000309023 0.0 
1.00007 -0.000222941 0.0 
0.346608 0.00100555 0.0 
0.501702 -0.0127954 0.0 
1.01243 0.0261422 0.0 
0.794558 -0.00130206 0.0 
0.999832 -0.000285149 0.0 
0.997672 0.00434614 0.0 
0.992578 -0.00227218 0.0 
1.00001 -0.000133372 0.0 
1.00563 -0.000269627 0.0 
1.01333 0.00362708 0.0 
1.00597 0.00159403 0.0 
0.913548 -0.0160299 0.0 
1.00322 0.0022021 0.0 
1.00501 -0.00174719 0.0 
1.01349 -0.000114432 0.0 
0.99749 0.0123358 0.0 
0.0455721 0.00242723 0.0 
0.835665 -0.0515282 0.0 
1 -0.000254541 0.0 
0.322949 -0.23461 0.0 
0.389956 0.0863414 0.0 
1.0571 0.0954328 0.0 
0.886779 -0.0210763 0.0 
1.00241 0.00980029 0.0 
0 0 0.0 
0.300939 0.00832176 0.0 
1.00609 -0.00048461 0.0 
0.00879022 -0.00106687 0.0 
-6.26471e-106 1.67995e-106 0.0 
0.99988 0.000976797 0.0 
0 0 0.0 
1.00411 -0.00482734 0.0 
0.0044838 -0.000431592 0.0 
0.236066 0.00416547 0.0 
0.00114366 8.07063e-05 0.0 
0.00145457 -0.000421811 0.0 
0 0 0.0 
0.108899 -0.0154378 0.0 
0.0494163 0.00107874 0.0 
0.885999 -0.0550081 0.0 
0.0151755 -0.0280636 0.0 
1.00466 0.000409783 0.0 
0 0 0.0 
0.992233 0.00311416 0.0 
0.402752 0.0314747 0.0 
0.0128445 0.000650007 0.0 
0.914777 -0.373093 0.0 
0.911101 -0.0562945 0.0 
1.00136 -0.00352833 0.0 
1.46955e-06 -5.296e-08 0.0 
4.98671e-47 -3.37393e-48 0.0 
1.00585 4.32199e-05 0.0 
1.00462 0.00209808 0.0 
0.0259309 0.00121154 0.0 
0.404184 0.0593318 0.0 
1.00198 -0.00395478 0.0 
1.00519 0.000115163 0.0 
1.00353 -0.00060949 0.0 
0.999762 0.00185217 0.0 
1.00518 0.0014439 0.0 
1.00403 0.000111674 0.0 
1.00286 0.00137795 0.0 
1.00551 0 0.0 
0.883861 -0.0207077 0.0 
0.97099 -0.0376632 0.0 
0.0176647 0.000853705 0.0 
1.00378 0.00200698 0.0 
0.30049 0.126298 0.0 
1.00114 -0.000701425 0.0 
1.11684 0.0438445 0.0 
1.00815 0.00200203 0.0 
0.974275 0.00189771 0.0 
0.999997 -0.000438638 0.0 
0.0140062 0.00092535 0.0 
1.00674 -0.00116284 0.0 
1.00408 -0.00131512 0.0 
0.263104 0.187639 0.0 
0.698897 0.00436404 0.0 
1.00587 -0.00136054 0.0 
1.01165 -0.0134842 0.0 
0.981107 -0.00288904 0.0 
1.00223 -0.00264191 0.0 
1.00682 0.000371621 0.0 
1.00331 0 0.0 
1.00541 0.000272382 0.0 
0.914767 0.0302533 0.0 
1.00579 5.1729e-05 0.0 
0.656581 0.0110426 0.0 
0.612329 -0.431403 0.0 
1.00585 -0.000551641 0.0 
0.00368068 -0.000362042 0.0 
0.0428937 0.0104612 0.0 
1.00124 -0.00225881 0.0 
0.0809786 0.0550256 0.0 
0.0471751 -0.00799333 0.0 
1.00278 -0.000588527 0.0 
1.00709 0.000981072 0.0 
1.00709 -0.000602161 0.0 
1.0038 -0.00172546 0.0 
0.974245 -0.0229481 0.0 
0.997287 0.00518835 0.0 
0.395847 -0.00960768 0.0 
0 0 0.0 
1.00013 -0.000258846 0.0 
1.00097 -0.00085107 0.0 
1.00012 -0.000685584 0.0 
0.939911 -0.283487 0.0 
0.999478 0.000174115 0.0 