<VTKFile type="UnstructuredGrid" version="0.1" byte_order="LittleEndian">
  <UnstructuredGrid>
    <Piece NumberOfPoints="13562" NumberOfCells="26935">
      <Points>
        <DataArray type = "Float64" NumberOfComponents="3" format="ascii">
0 0 0.0 
14 0 0.0 
14 8 0.0 
0 8 0.0 
0.383893 2.91152 0.0 
4.32046 1.78582 0.0 
4.5387 4.00507 0.0 
6.40969 2.27914 0.0 
4.51774 3.98494 0.0 
4.47104 4.01756 0.0 
4.61497 3.93963 0.0 
4.07057 3.9639 0.0 
4.53824 7.43039 0.0 
4.04691 4.34897 0.0 
3.98741 4.04054 0.0 
3.98768 4.02653 0.0 
9.00321 4.86505 0.0 
4.05959 4.04241 0.0 
12.0185 5.47286 0.0 
4.2321 4.07437 0.0 
3.84755 3.99975 0.0 
4.47538 4.03375 0.0 
4.67405 4.10923 0.0 
4.1789 4.0308 0.0 
4.80484 4.03022 0.0 
4.61584 4.00791 0.0 
12.1265 0 0.0 
4.12971 3.98692 0.0 
3.63028 3.86588 0.0 
4.00323 4.0083 0.0 
0.762019 5.13086 0.0 
4.13489 4.05432 0.0 
0.384822 4.35157 0.0 
4.44245 4.02267 0.0 
4.02301 3.98731 0.0 
3.99474 4.00051 0.0 
4.04149 3.98321 0.0 
0 3.36284 0.0 
4.93697 3.93496 0.0 
1.60222 4.99327 0.0 
4.3142 3.99345 0.0 
10.1734 4.4195 0.0 
4.0273 4.01367 0.0 
4.10206 3.96084 0.0 
4.52127 4.00862 0.0 
4.62342 4.01415 0.0 
4.45622 3.99719 0.0 
5.17517 4.1161 0.0 
4.27508 3.99154 0.0 
4.35665 3.99327 0.0 
4.93904 4.11785 0.0 
4.12607 4.05951 0.0 
7.42827 2.99581 0.0 
4.2483 4.03635 0.0 
4.0955 3.94899 0.0 
4.03444 4.04627 0.0 
4.00163 4.02959 0.0 
4.02005 3.99731 0.0 
5.23503 8 0.0 
4.30375 3.97965 0.0 
0.161642 7.53999 0.0 
4.51883 4.031 0.0 
5.35828 4.09214 0.0 
4.34747 4.01686 0.0 
4.72673 4.01395 0.0 
13.4868 6.98366 0.0 
5.25235 4.08083 0.0 
5.01113 4.1034 0.0 
4.94157 3.98326 0.0 
11.5613 2.86333 0.0 
4.09132 3.99334 0.0 
4.15825 4.03374 0.0 
4.04672 4.0202 0.0 
4.94501 3.90266 0.0 
4.19587 4.09387 0.0 
4.54772 3.97659 0.0 
3.96947 4.02134 0.0 
10.5103 5.31666 0.0 
5.28835 3.91341 0.0 
3.96297 3.96024 0.0 
4.21254 3.97074 0.0 
4.35467 4.03786 0.0 
4.21359 4.04577 0.0 
4.11692 3.94964 0.0 
4.34691 4.03544 0.0 
3.95785 3.95439 0.0 
4.70958 7.08222 0.0 
4.02972 4.04518 0.0 
6.49425 0.938237 0.0 
3.97141 4.03046 0.0 
4.51952 4.01192 0.0 
3.97561 4.03322 0.0 
3.97816 4.02179 0.0 
4.04633 4.03304 0.0 
3.96767 4.02507 0.0 
4.53971 3.97638 0.0 
4.39544 3.99563 0.0 
1.06432 1.49826 0.0 
4.54225 3.97864 0.0 
13.8261 5.94601 0.0 
6.39549 7.83897 0.0 
4.54991 3.98013 0.0 
4.21061 3.98877 0.0 
4.73521 7.52615 0.0 
5.21629 3.31327 0.0 
4.37488 4.03885 0.0 
13.611 1.35207 0.0 
4.51322 3.98638 0.0 
4.00988 3.97037 0.0 
4.42632 3.99455 0.0 
4.06539 4.03073 0.0 
4.22817 3.98947 0.0 
4.38868 4.03197 0.0 
4.70511 4.01377 0.0 
10.2825 1.1778 0.0 
13.0453 3.92902 0.0 
4.58466 4.50147 0.0 
4.00813 4.01182 0.0 
11.0142 2.68934 0.0 
4.295 4.04231 0.0 
6.37297 2.73989 0.0 
6.50541 6.65271 0.0 
4.0914 3.96216 0.0 
2.61514 0.506135 0.0 
5.20281 3.96498 0.0 
4.27576 3.95853 0.0 
4.53992 4.00595 0.0 
4.65935 4.04515 0.0 
12.6474 3.41509 0.0 
4.05312 3.99197 0.0 
13.7435 8 0.0 
4.11702 4.02719 0.0 
6.67367 0 0.0 
4.00932 4.01975 0.0 
6.82471 4.26136 0.0 
4.20354 4.03712 0.0 
4.88569 3.98105 0.0 
3.59711 3.72313 0.0 
4.90839 4.00372 0.0 
4.13224 5.7294 0.0 
7.58425 5.24486 0.0 
1.21408 1.2833 0.0 
4.57455 4.08211 0.0 
6.22735 7.50315 0.0 
4.05099 4.00074 0.0 
5.29214 4.05792 0.0 
4.45409 2.45801 0.0 
10.4466 3.51765 0.0 
8.95603 7.57132 0.0 
4.1403 4.03691 0.0 
4.22222 4.09636 0.0 
3.98122 4.01031 0.0 
4.00964 3.98933 0.0 
3.9183 4.01934 0.0 
4.53577 4.02646 0.0 
3.49935 5.13978 0.0 
4.98619 3.93198 0.0 
3.10914 5.59567 0.0 
3.76618 3.80119 0.0 
4.54778 4.01674 0.0 
4.08927 3.9549 0.0 
2.46912 6.85608 0.0 
4.46798 4.00874 0.0 
3.98396 4.05716 0.0 
6.3157 4.87688 0.0 
4.09428 3.96323 0.0 
3.05843 3.50583 0.0 
3.31161 1.01031 0.0 
11.1865 7.25481 0.0 
4.18332 3.96996 0.0 
4.07037 4.09034 0.0 
4.26449 3.98943 0.0 
8.48285 5.046 0.0 
12.0372 1.49526 0.0 
4.31004 3.99238 0.0 
4.62538 3.98264 0.0 
4.471 4.06206 0.0 
4.05399 4.05242 0.0 
5.11537 3.91723 0.0 
8.82707 4.16841 0.0 
4.52949 3.9972 0.0 
6.38052 3.13775 0.0 
5.9291 5.15993 0.0 
3.1002 2.25282 0.0 
4.32918 3.99209 0.0 
9.4176 1.73395 0.0 
4.20327 3.97947 0.0 
5.24537 4.1668 0.0 
3.81907 4.22339 0.0 
4.46368 4.04155 0.0 
5.25032 1.89548 0.0 
4.06062 3.97377 0.0 
8.35832 2.9685 0.0 
13.4699 7.45697 0.0 
4.43249 4.03245 0.0 
4.01229 3.97705 0.0 
4.06609 3.98408 0.0 
4.56283 3.99857 0.0 
4.6207 4.09144 0.0 
4.09808 4.03387 0.0 
4.51915 3.998 0.0 
4.00577 3.97873 0.0 
4.53802 4.03291 0.0 
4.48765 4.04193 0.0 
4.51325 3.99871 0.0 
7.62224 2.88267 0.0 
7.22419 0.703495 0.0 
4.39911 4.02882 0.0 
4.13597 4.04152 0.0 
4.00773 4.00001 0.0 
1.21547 8 0.0 
10.893 4.27581 0.0 
4.01425 3.98947 0.0 
5.8599 3.0813 0.0 
4.18989 4.04994 0.0 
3.93277 3.96019 0.0 
4.22492 3.96395 0.0 
6.98691 2.68677 0.0 
3.69147 4.54393 0.0 
4.6103 3.91602 0.0 
14 1.00091 0.0 
9.69135 3.27143 0.0 
4.11575 4.03408 0.0 
4.76297 3.98343 0.0 
4.20274 4.07949 0.0 
4.00241 3.93803 0.0 
12.5015 1.14918 0.0 
4.09797 3.95385 0.0 
4.23052 4.09368 0.0 
4.20868 4.08388 0.0 
1.48228 7.49995 0.0 
3.88306 3.53333 0.0 
4.20816 3.9787 0.0 
4.21025 4.03415 0.0 
4.12608 4.0407 0.0 
4.2848 4.04163 0.0 
4.00414 3.99309 0.0 
13.1818 2.98063 0.0 
3.98799 3.95955 0.0 
4.14129 4.04411 0.0 
8.82235 8 0.0 
4.23781 4.09881 0.0 
4.55171 4.00358 0.0 
9.95655 3.60002 0.0 
4.69512 3.9114 0.0 
4.34194 4.03711 0.0 
4.44972 4.00167 0.0 
4.06329 4.04721 0.0 
9.69483 7.24214 0.0 
4.18805 3.96826 0.0 
6.52781 1.51786 0.0 
3.9023 6.84053 0.0 
3.22035 3.32381 0.0 
0.417479 6.31883 0.0 
4.63883 4.00936 0.0 
4.02321 3.97317 0.0 
2.66717 0 0.0 
8.91842 0.967714 0.0 
3.98977 4.04663 0.0 
3.99153 4.04254 0.0 
4.57553 4.01147 0.0 
4.77997 4.49113 0.0 
13.1592 5.25121 0.0 
4.96928 3.97464 0.0 
3.97296 4.00674 0.0 
11.3714 7.19716 0.0 
9.192 5.81999 0.0 
4.2904 3.92587 0.0 
3.53429 0 0.0 
4.67134 3.89044 0.0 
4.08953 4.02996 0.0 
4.14091 4.04918 0.0 
2.30378 3.03595 0.0 
10.7133 0.399801 0.0 
9.65837 4.25696 0.0 
7.40997 8 0.0 
4.84915 4.03246 0.0 
2.86414 6.59491 0.0 
8.4574 2.322 0.0 
9.9204 3.84008 0.0 
14 3.14675 0.0 
6.98728 5.60342 0.0 
11.8702 0.212102 0.0 
6.78993 2.13526 0.0 
4.09065 3.95069 0.0 
0.846754 0.565038 0.0 
3.92937 4.29323 0.0 
12.155 3.04252 0.0 
4.1688 4.04592 0.0 
4.02904 3.9664 0.0 
7.59973 7.22298 0.0 
12.6277 1.80732 0.0 
14 4.58149 0.0 
5.85073 0.410811 0.0 
13.0902 7.46595 0.0 
12.9422 5.39238 0.0 
4.23202 4.04646 0.0 
4.4275 3.99607 0.0 
4.84809 6.69312 0.0 
4.15164 4.0447 0.0 
9.70352 1.23095 0.0 
4.51225 4.03393 0.0 
3.96066 4.00697 0.0 
4.21339 4.02989 0.0 
4.96395 4.01931 0.0 
13.1661 5.68046 0.0 
13.7895 0 0.0 
4.10795 4.02897 0.0 
4.08325 4.07119 0.0 
11.4357 2.10385 0.0 
4.34982 4.71374 0.0 
1.94587 1.61999 0.0 
4.00791 4.0033 0.0 
4.0088 3.9805 0.0 
9.75515 2.36072 0.0 
3.14608 3.72718 0.0 
4.06079 4.07867 0.0 
4.02947 3.97325 0.0 
10.6153 7.62373 0.0 
4.6454 3.91884 0.0 
4.01129 4.00596 0.0 
4.38666 4.07976 0.0 
3.84669 3.90466 0.0 
4.50779 4.02314 0.0 
4.56073 4.0643 0.0 
4.01755 3.97046 0.0 
4.52386 4.04096 0.0 
1.77672 6.77587 0.0 
4.19209 4.05548 0.0 
6.42419 4.18044 0.0 
4.90953 3.97583 0.0 
4.05373 4.0206 0.0 
4.0593 4.0207 0.0 
3.58128 4.19858 0.0 
4.55143 4.02796 0.0 
4.11868 3.97589 0.0 
4.15516 3.94365 0.0 
4.01695 3.96353 0.0 
4.19636 4.04727 0.0 
8.32777 8 0.0 
0.195775 6.68759 0.0 
4.08914 3.9854 0.0 
4.29617 3.98447 0.0 
3.4502 4.08854 0.0 
5.06461 4.08435 0.0 
4.00437 3.9841 0.0 
6.64238 0.26606 0.0 
4.0134 3.97877 0.0 
3.03193 6.72582 0.0 
13.6945 7.80328 0.0 
4.01079 3.9893 0.0 
12.6381 7.48703 0.0 
4.36156 4.08272 0.0 
2.48952 3.59766 0.0 
11.2304 4.89274 0.0 
4.06113 4.25231 0.0 
4.20001 4.03326 0.0 
4.5555 3.99979 0.0 
4.21639 4.03358 0.0 
13.2903 7.45798 0.0 
0.348252 3.38744 0.0 
11.5792 7.84461 0.0 
0.551344 1.2516 0.0 
4.02575 3.96118 0.0 
3.90873 3.96016 0.0 
6.49849 5.21743 0.0 
13.5337 6.38237 0.0 
4.1283 4.05439 0.0 
3.92693 3.99777 0.0 
14 3.84943 0.0 
7.83547 2.82767 0.0 
3.89893 4.03609 0.0 
11.8351 6.74811 0.0 
4.89402 3.94006 0.0 
4.1127 3.96242 0.0 
6.21686 4.3493 0.0 
4.15116 3.93854 0.0 
4.13176 4.07898 0.0 
10.2186 2.28825 0.0 
4.55263 4.00322 0.0 
4.21594 3.97337 0.0 
4.85957 4.01386 0.0 
4.44624 3.99091 0.0 
4.00279 3.99128 0.0 
4.05385 4.00986 0.0 
4.56826 3.99519 0.0 
4.30033 6.55304 0.0 
10.0323 4.54407 0.0 
6.32476 7.00417 0.0 
12.5996 5.63737 0.0 
4.64409 4.00438 0.0 
4.00565 4.00149 0.0 
4.1152 4.03957 0.0 
4.3099 4.04149 0.0 
4.01461 4.01826 0.0 
4.96907 4.10551 0.0 
4.02027 4.02101 0.0 
2.89315 5.49872 0.0 
12.4011 3.01864 0.0 
5.0604 3.97687 0.0 
6.07432 4.98134 0.0 
3.96806 4.01296 0.0 
11.0968 5.75296 0.0 
4.55406 3.99831 0.0 
4.21617 4.04472 0.0 
10.151 2.94085 0.0 
5.99016 4.04483 0.0 
4.27433 4.04197 0.0 
4.5467 4.03146 0.0 
1.1914 3.57636 0.0 
3.84338 4.30649 0.0 
4.53595 4.04072 0.0 
7.20657 5.05296 0.0 
3.05391 4.40989 0.0 
11.8107 0.651755 0.0 
6.73412 3.55133 0.0 
3.96782 4.04959 0.0 
4.53323 4.0151 0.0 
5.30644 0.173765 0.0 
0.198711 3.79297 0.0 
4.72583 0.194576 0.0 
3.90471 2.31823 0.0 
8.67201 2.39205 0.0 
0.845864 1.62601 0.0 
3.77148 4.0081 0.0 
7.6398 2.6807 0.0 
4.15102 4.79287 0.0 
4.73668 3.89169 0.0 
4.04877 3.98924 0.0 
3.96886 4.00175 0.0 
4.64006 3.99672 0.0 
4.02586 3.98561 0.0 
5.81588 4.04524 0.0 
4.11271 4.04576 0.0 
12.4928 4.91549 0.0 
4.82507 4.1106 0.0 
4.48688 3.99579 0.0 
4.37028 4.03412 0.0 
0.347962 1.57688 0.0 
4.54307 4.00434 0.0 
6.85323 7.27439 0.0 
7.00233 6.47926 0.0 
7.78364 0 0.0 
6.32437 6.34013 0.0 
6.95088 7.06331 0.0 
5.62592 4.80931 0.0 
4.7383 3.87602 0.0 
4.05524 4.0874 0.0 
6.11869 4.72331 0.0 
1.64832 6.43608 0.0 
13.7604 0.5867 0.0 
4.03795 3.98521 0.0 
4.07835 3.98434 0.0 
2.77495 7.51281 0.0 
4.25841 3.96952 0.0 
4.03014 4.02376 0.0 
7.19396 5.74117 0.0 
4.0104 4.03331 0.0 
4.52636 3.99752 0.0 
4.00923 4.01305 0.0 
2.46638 6.41982 0.0 
7.34292 5.19319 0.0 
4.71442 4.01913 0.0 
2.41658 7.83801 0.0 
4.01845 4.01173 0.0 
7.01384 4.49853 0.0 
5.97374 5.37063 0.0 
4.44594 4.0228 0.0 
4.54106 4.00722 0.0 
4.04553 4.09556 0.0 
7.14156 0.150746 0.0 
5.18191 3.94368 0.0 
6.21307 5.48605 0.0 
13.1303 3.51091 0.0 
4.61912 3.989 0.0 
[...]
<PointData>
  <DataArray type = "Float64" Name="Vitesse" NumberOfComponents="3" format="ascii">
1 0 0.0 
1.00304 0 0.0 
1.00083 0 0.0 
1 0 0.0 
0.999969 -0.000136502 0.0 
1.00517 -0.00307893 0.0 
-5.72011e-50 9.96228e-51 0.0 
1.00737 -0.0001438 0.0 
0.210811 0.00546345 0.0 
1.97272e-08 -1.13174e-09 0.0 
0.787707 0.0329177 0.0 
0.874538 -0.0945285 0.0 
1.00523 0.000719388 0.0 
1.01897 0.056301 0.0 
0.774215 0.197537 0.0 
0.682441 0.189174 0.0 
1.00692 -0.00152587 0.0 
0.68987 0.185305 0.0 
1.00352 -0.00329383 0.0 
0.803285 0.0259997 0.0 
0.918173 -0.004533 0.0 
0.133176 -0.0159492 0.0 
0.95936 -0.0453463 0.0 
0 0 0.0 
0.37159 -0.0172925 0.0 
0.117874 -0.00181346 0.0 
1.0044 0 0.0 
-3.05773e-51 -2.52745e-52 0.0 
0.971959 -0.0109884 0.0 
0.0778911 0.0811928 0.0 
0.999926 0.000702156 0.0 
0.538371 0.0593922 0.0 
0.99996 0.000203723 0.0 
0.000153478 -1.30442e-05 0.0 
0.153528 -0.0395631 0.0 
0.279586 -0.174592 0.0 
0.232839 -0.0270662 0.0 
1 0 0.0 
0.804191 0.0187022 0.0 
0.999562 0.00177207 0.0 
2.59761e-07 2.16432e-08 0.0 
1.00755 -0.00210896 0.0 
0 0 0.0 
0.816108 -0.052963 0.0 
6.81053e-05 -1.43595e-05 0.0 
0.132174 -0.00993177 0.0 
0.00690232 0.000328867 0.0 
0.943225 -0.0160816 0.0 
4.51877e-05 3.98514e-06 0.0 
0.0192643 0.00114714 0.0 
0.959661 -0.0248097 0.0 
0.761244 0.104152 0.0 
1.00742 0.00043793 0.0 
0 0 0.0 
1.03233 -0.0969123 0.0 
0.924564 0.316555 0.0 
0.720045 0.309307 0.0 
0 0 0.0 
1.00566 0 0.0 
0.221628 0.00595564 0.0 
1 3.80726e-05 0.0 
0.146158 -0.0182687 0.0 
0.857369 -0.0129566 0.0 
0 0 0.0 
0.244915 -0.00591503 0.0 
1.00119 -0.00101767 0.0 
0.807686 -0.0157444 0.0 
0.910381 -0.0220645 0.0 
0.469702 0.0104446 0.0 
1.0055 0.00171532 0.0 
7.92921e-175 -2.68753e-177 0.0 
0 0 0.0 
0 0 0.0 
0.948271 0.0166318 0.0 
1.09649 0.0877752 0.0 
0.347555 0.0151149 0.0 
0.725519 0.0673639 0.0 
1.00579 -0.00209067 0.0 
0.890995 0.00944081 0.0 
0.859688 -0.137451 0.0 
0.391456 0.00459103 0.0 
0.0479796 -0.00515004 0.0 
0.0512578 -0.00119813 0.0 
0.981012 -0.0675381 0.0 
0.000326126 -2.66204e-05 0.0 
0.874312 -0.124892 0.0 
1.00581 0.00104468 0.0 
0.912575 0.324156 0.0 
1.00603 -0.000233075 0.0 
0.750371 0.107046 0.0 
0.0109333 -0.00192291 0.0 
0.75097 0.13138 0.0 
0.686368 0.104805 0.0 
0.43154 0.132783 0.0 
0.744 0.0768815 0.0 
0.346115 0.0126759 0.0 
-4.46871e-90 -3.0628e-91 0.0 
1.00012 -0.000553525 0.0 
0.315384 0.0121198 0.0 
1.0003 -0.00202393 0.0 
1.00597 -1.84561e-05 0.0 
0.298875 0.0140815 0.0 
0.0128703 -8.09913e-05 0.0 
1.00539 0.000520811 0.0 
1.01195 0.00127529 0.0 
0.0867507 -0.00871914 0.0 
1.00347 0.00111574 0.0 
0.187457 0.00469224 0.0 
0.963741 -0.325231 0.0 
0.0330635 0.00174671 0.0 
6.8677e-06 1.89959e-06 0.0 
0.0124916 0.000682417 0.0 
0.019693 -0.00216284 0.0 
0.223728 -0.00574119 0.0 
1.00547 0.000409724 0.0 
0.963688 -0.00218092 0.0 
1.03313 -0.000642649 0.0 
0.0803255 0.0455558 0.0 
1.00572 0.00145366 0.0 
0.0440305 -0.00277361 0.0 
1.00782 0.000208885 0.0 
1.00674 -0.000369755 0.0 
0.823288 -0.0628056 0.0 
1.00143 -0.000611024 0.0 
0.637535 0.00925315 0.0 
0.610536 0.00321541 0.0 
0.0026259 -0.000338667 0.0 
0.39628 -0.0358656 0.0 
1.01021 0.00163162 0.0 
0 0 0.0 
1.00105 0 0.0 
0 0 0.0 
1.00574 0 0.0 
0.528893 0.307653 0.0 
1.00609 -0.0024435 0.0 
0 0 0.0 
0.460111 0.0136876 0.0 
0.981846 -0.014798 0.0 
0.379373 0.00106498 0.0 
1.00807 0.00551373 0.0 
1.00723 -0.00146627 0.0 
1.0002 -0.000574333 0.0 
0.788508 -0.0522114 0.0 
1.0061 -2.28841e-05 0.0 
0 0 0.0 
0.691956 -0.0128199 0.0 
1.0075 -0.00495299 0.0 
1.00785 0.0021915 0.0 
1.00503 -0.000213221 0.0 
0 0 0.0 
1.08817 0.0642004 0.0 
0.604879 0.0330274 0.0 
0.360757 -0.149486 0.0 
0.856017 0.0116053 0.0 
0.120297 -0.0171863 0.0 
1.00309 0.0104439 0.0 
0.822125 0.017063 0.0 
1.00229 0.00587181 0.0 
0.970511 -0.0277365 0.0 
0.0603566 -0.0120447 0.0 
0.979635 -0.0923948 0.0 
1.0017 0.00170989 0.0 
0 0 0.0 
0.83941 0.177038 0.0 
1.00858 -0.00267184 0.0 
0.782389 -0.0540773 0.0 
0.993752 -0.00461978 0.0 
1.00243 -0.00156974 0.0 
1.00368 -0.000638623 0.0 
0.422191 0.00270659 0.0 
1.04579 0.210469 0.0 
0.0318972 0.00238333 0.0 
1.00711 -0.00149988 0.0 
1.00467 0.000889261 0.0 
0.00735021 0.000574969 0.0 
0.298923 0.0272982 0.0 
0.509762 -0.0370769 0.0 
0.961704 0.274636 0.0 
0.886698 0.0120187 0.0 
0.958884 -0.00306706 0.0 
0.0295776 0.00109551 0.0 
1.00838 0.000316726 0.0 
1.00945 -0.0022472 0.0 
1.00124 -0.00404314 0.0 
0.0236568 0.000974453 0.0 
1.00609 0.000543836 0.0 
0.199967 0.00455711 0.0 
1.00341 -0.0128805 0.0 
0.970461 0.0433786 0.0 
0.212853 -0.021925 0.0 
1.00692 -0.00164402 0.0 
0.586293 -0.0572079 0.0 
1.00721 0.000617987 0.0 
1.00128 -0.000533976 0.0 
0.0757268 -0.00924187 0.0 
0.93056 -0.339078 0.0 
0.0783373 0.00122429 0.0 
0.0342986 0.012978 0.0 
0.866569 -0.0505086 0.0 
0 0 0.0 
0.0138332 0.000268972 0.0 
0.89571 -0.385299 0.0 
0.182606 -0.0236318 0.0 
0.238811 -0.024798 0.0 
8.89801e-05 7.9467e-06 0.0 
1.00723 0.000398892 0.0 
1.00598 -2.67012e-05 0.0 
0.000385496 -3.9087e-05 0.0 
6.42017e-09 6.63673e-10 0.0 
0 0 0.0 
1.00042 0 0.0 
0.994917 -0.00355015 0.0 
0.15411 -0.0292443 0.0 
1.00886 0.000501331 0.0 
0.199374 0.00600848 0.0 
0.875563 -0.0771975 0.0 
0.532229 0.00242583 0.0 
1.00741 0.000255486 0.0 
0.996975 0.0236121 0.0 
0.95038 0.0267925 0.0 
1.00309 0.000852273 0.0 
1.00721 0.00131426 0.0 
0 0 0.0 
0.381748 0.0176161 0.0 
0.951184 0.0613909 0.0 
0.965802 -0.189613 0.0 
1.00429 0.000762249 0.0 
0.969549 -0.0815251 0.0 
1.06467 0.0552418 0.0 
1.00079 0.0626061 0.0 
1.00059 0.00041916 0.0 
0.999233 -0.0272709 0.0 
0.217711 0.00453436 0.0 
0 0 0.0 
1.77427e-187 3.43037e-189 0.0 
0.0204535 -0.00171079 0.0 
0.253341 -0.175491 0.0 
1.00446 0.00212775 0.0 
0.887094 -0.21838 0.0 
0.09093 0.0127378 0.0 
1.00501 0 0.0 
1.08758 0.0540907 0.0 
0.00305699 -0.000579648 0.0 
1.00827 0.00199431 0.0 
0.950111 0.0281438 0.0 
0.0198783 -0.00165629 0.0 
-5.69555e-133 -2.88459e-134 0.0 
0.816993 0.213501 0.0 
1.00473 -0.000414173 0.0 
0.459868 0.00188305 0.0 
1.00651 -0.000262866 0.0 
1.00471 0.00208536 0.0 
0.995242 -0.00721138 0.0 
1.00003 0.000334092 0.0 
0.148143 -0.00221661 0.0 
0.950153 -0.259055 0.0 
1.00152 0 0.0 
1.00583 0.000243967 0.0 
0.804481 0.205468 0.0 
0.787039 0.217416 0.0 
0.0577442 -0.0182069 0.0 
1.02557 -0.00770211 0.0 
1.00112 -0.00375596 0.0 
0.530759 0.0130246 0.0 
0.675177 -0.0143342 0.0 
1.00353 -0.000727573 0.0 
1.0061 -0.00110838 0.0 
0.994625 -0.0164794 0.0 
1.00272 0 0.0 
1.01 0.0239144 0.0 
0 0 0.0 
0.305084 0.0276028 0.0 
0.998495 -0.0020846 0.0 
1.00511 0.000146336 0.0 
0.993656 -0.00223888 0.0 
1.00565 0 0.0 
0.412664 -0.0165734 0.0 
1.00239 0.00250474 0.0 
1.0068 0.000507696 0.0 
0.943933 0.00238278 0.0 
1.00479 0.00354418 0.0 
1.00751 -0.0013063 0.0 
1.00457 0.000116612 0.0 
1.00707 -1.22759e-05 0.0 
1.02736 -0.100907 0.0 
1.00013 -0.000181665 0.0 
0.992787 0.0588201 0.0 
1.00455 0.00190902 0.0 
0.0865242 0.00423391 0.0 
1.02122 -0.245362 0.0 
1.00578 -0.000334127 0.0 
1.00434 0.001241 0.0 
0.999262 -0.00337695 0.0 
1.0055 -0.00023792 0.0 
1.00168 -0.000556693 0.0 
1.00149 -0.00358841 0.0 
0.0790394 -0.00154074 0.0 
0.0110326 0.00144059 0.0 
1.00666 0.00132781 0.0 
0.0842645 0.00326687 0.0 
1.00571 0.000392099 0.0 
0.169652 -0.0201433 0.0 
0.74729 -0.012855 0.0 
0 0 0.0 
0.420663 -0.00715382 0.0 
1.00108 -0.00287956 0.0 
1.00322 0 0.0 
0 0 0.0 
1.05918 0.225444 0.0 
1.00524 0.00112866 0.0 
1.02496 0.0133752 0.0 
1.00045 -0.00131078 0.0 
0 0 0.0 
0.878223 -0.367556 0.0 
1.00641 0.000870381 0.0 
0.990582 -0.00333534 0.0 
1.03251 0.235422 0.0 
0.89893 -0.208357 0.0 
1.00407 -0.000262647 0.0 
0.927564 0.0290824 0.0 
0 0 0.0 
0.769619 -0.0283227 0.0 
0.94239 -0.0379812 0.0 
0.0679952 -0.00964754 0.0 
0.580275 -0.0485449 0.0 
0.994784 -0.30244 0.0 
0.258933 -0.0280065 0.0 
1.00078 0.00125709 0.0 
0.376756 0.0147226 0.0 
0.99383 -0.0039482 0.0 
0.50362 0.013998 0.0 
0 0 0.0 
0 0 0.0 
0.977588 0.0158081 0.0 
0.147343 -0.0236818 0.0 
0.312356 -0.00137175 0.0 
0.979163 -0.0462869 0.0 
1.00658 -0.280627 0.0 
0.105246 0.00361049 0.0 
1.00525 0 0.0 
1 0.000128887 0.0 
0.00459728 -0.000189632 0.0 
0.133918 0.0040224 0.0 
0.980909 0.00548362 0.0 
0.82037 -0.0214474 0.0 
0.804969 -0.413623 0.0 
1.00578 -6.00527e-05 0.0 
0.892325 -0.319069 0.0 
1.00275 0.00233607 0.0 
1.00109 -0.000177075 0.0 
0.312439 -0.112643 0.0 
1.00217 -0.00054868 0.0 
0.82175 -0.0217687 0.0 
0.996493 -0.00109725 0.0 
1.00629 -0.00339258 0.0 
1.02389 0.0821927 0.0 
0 0 0.0 
7.1796e-09 3.95054e-11 0.0 
0 0 0.0 
1.00146 -0.000549252 0.0 
0.999969 -3.92629e-05 0.0 
1.00324 -0.000144949 0.0 
1.00004 -0.000234432 0.0 
1.03636 -0.253142 0.0 
0.892369 -0.0518589 0.0 
1.00816 -0.00190152 0.0 
1.00094 -0.00167687 0.0 
0.577352 0.0711036 0.0 
0.844577 -0.0237709 0.0 
0.983885 0.00282254 0.0 
1.00718 0.000447167 0.0 
0.883426 0.0252185 0.0 
1.00316 -0.00131675 0.0 
0.771142 0.0206939 0.0 
0.739666 -0.0363097 0.0 
1.00791 -0.00369484 0.0 
1.02898 -0.0556911 0.0 
1.07099 0.153529 0.0 
1.00611 0.000928169 0.0 
0.00261529 -0.00048809 0.0 
0.3333 0.00523236 0.0 
0.348152 -0.00497347 0.0 
0.0943078 0.00280916 0.0 
0.499834 -0.352551 0.0 
0 0 0.0 
0.0951395 0.0209222 0.0 
1.00608 0.0023756 0.0 
1.00843 -0.00230545 0.0 
1.00645 -0.000146861 0.0 
1.00214 -0.00317153 0.0 
0.162294 0.00410667 0.0 
0 0 0.0 
0 0 0.0 
0.0490301 -0.00322538 0.0 
0.299734 0.144338 0.0 
0.919839 -0.0251339 0.0 
0.293806 0.135131 0.0 
1.0013 0.00540444 0.0 
1.00379 0.00221626 0.0 
0.543846 0.010032 0.0 
1.0091 -0.00267642 0.0 
0.713469 0.0218135 0.0 
1.00468 -0.00217006 0.0 
0.0194446 -0.000305819 0.0 
0.0208182 0.000299346 0.0 
1.00663 0.00126136 0.0 
0.709981 -0.00577955 0.0 
0.0146379 -0.0009501 0.0 
0.175801 -0.0248508 0.0 
0.999497 -5.68102e-05 0.0 
0.984955 0.0443896 0.0 
0.266028 -0.0297814 0.0 
1.00746 -0.00173765 0.0 
0.993601 0.00668416 0.0 
1.00465 0.000352819 0.0 
1.00823 0.000759641 0.0 
0.819285 0.126828 0.0 
0.0376023 -0.00636227 0.0 
1.00505 -0.000156241 0.0 
0.999992 2.90295e-05 0.0 
1.00444 -0.000238422 0.0 
1.00447 -0.00548638 0.0 
1.00679 0.000580593 0.0 
1.00006 -0.00044402 0.0 
0.94454 0.00100155 0.0 
1.00719 0.00036666 0.0 
1.01707 0.0173415 0.0 
0.996056 0.0233184 0.0 
0 0 0.0 
0.706602 -0.0460221 0.0 
0.190534 0.0129727 0.0 
0.251463 -0.0480243 0.0 
0.696117 -0.00531182 0.0 
0.314749 0.0437721 0.0 
1.00099 -0.00492755 0.0 
0.944953 -0.0335873 0.0 
0.0365332 0.00135743 0.0 
0.0200571 -0.00132217 0.0 
1.00001 -0.000169479 0.0 
-2.1874e-49 1.86523e-50 0.0 
1.00607 -0.000218467 0.0 
1.00662 -0.000634455 0.0 
1.0058 0 0.0 
1.00723 -0.000479193 0.0 
1.00616 -0.000324335 0.0 
1.01099 -0.00394033 0.0 
1.01517 0.020794 0.0 
1.01987 0.219998 0.0 
1.00908 -0.00335044 0.0 
1.00057 0.00144215 0.0 
1.00327 0.000481206 0.0 
0.130335 -0.0174854 0.0 
0.0510745 -0.00168305 0.0 
1.00221 0.000778184 0.0 
0.407436 0.00558284 0.0 
0.181719 0.0616497 0.0 
1.00721 -0.00117658 0.0 
0.784496 0.342714 0.0 
0.0231634 0.000904072 0.0 
0.123295 0.073048 0.0 
1.00158 0.00244198 0.0 
1.00736 -0.00151349 0.0 
0.246171 -0.0108481 0.0 
1.00166 0.000228871 0.0 
0 0 0.0 
1.0076 -0.00236361 0.0 
1.00925 -0.00161882 0.0 
0.00473732 -0.000470512 0.0 
0.00767633 -0.00153551 0.0 
1.00236 0.205094 0.0 
1.00583 -1.15542e-05 0.0 
0.754865 0.0117462 0.0 
1.00867 -0.00147882 0.0 
1.00356 0.00249428 0.0 
0.228591 0.0228487 0.0 
1.00813 0.00486321 0.0 
1.00697 0.00062423 0.0 
1.00752 0.000948383 0.0 
1.00556 0.00183295 0.0 
1.00584 -2.73129e-05 0.0 
0.452868 -0.307323 0.0 
0.018461 0.000381353 0.0 
1.00445 -0.00132153 0.0 
1.01343 -0.00626053 0.0 
1.00021 -0.000713462 0.0 
0.0646134 -0.00212267 0.0 
1.00685 0.00108915 0.0 
0.186022 -0.0241611 0.0 
0.815453 -0.0265973 0.0 
0.0784849 0.000646455 0.0 
0 0 0.0 
0.802619 0.319135 0.0 
1.03026 0.0128237 0.0 
8.02354e-07 1.01769e-06 0.0 
1.06557 0.018761 0.0 
1.07178 0.0749682 0.0 
1.00631 -0.000904591 0.0 
0.0660486 0.00153998 0.0 
1 0 0.0 
0.995768 -0.000195835 0.0 
0.902992 -0.00399631 0.0 
0.0204564 -0.00281057 0.0 
1.00605 0.000711376 0.0 
0.906114 -0.0266628 0.0 
0.692564 0.000779872 0.0 
1.00011 0.000801772 0.0 
1.12206 0.0817514 0.0 
1.08053 -0.134878 0.0 
0.963619 -0.282991 0.0 
0.999977 6.97092e-06 0.0 
1.00486 0.000449214 0.0 
1.00555 -0.000547932 0.0 
1.00493 -0.000539141 0.0 
0.00938201 -0.00149626 0.0 
0.924719 -0.305824 0.0 
0.997325 -0.000779974 0.0 
0.999357 0.000718971 0.0 
1.00661 0.000627337 0.0 
0 0 0.0 
1.00002 -0.000183697 0.0 
1.00034 -0.00496402 0.0 
0.013684 -0.000557969 0.0 
1.00667 0.00160698 0.0 
0.961759 -0.044713 0.0 
0.212857 0.0677051 0.0 
0.0148536 0.000932212 0.0 
0.730275 -0.0166893 0.0 
1.00024 0.000356679 0.0 
1.03053 -0.0260031 0.0 
0.999014 -0.00431202 0.0 
1.00476 -0.000282949 0.0 
1.01012 0.00417555 0.0 
0.644523 -0.0271252 0.0 
1.01818 0.0100533 0.0 
0.0897739 0.00142311 0.0 
0.635765 0.014575 0.0 
1.00754 0.000351121 0.0 
0.704981 0.0906187 0.0 
1.00603 -0.00051552 0.0 
1.00133 0.00285686 0.0 
0.999699 0.00505358 0.0 
0 0 0.0 
0.266318 -0.0109638 0.0 
1.00858 -0.00259051 0.0 
0.0129425 -0.0022493 0.0 
1.00596 0.000528061 0.0 
1.00884 0.00195807 0.0 
0.398207 0.0198278 0.0 
1.00003 0.000303714 0.0 
1.00621 0.00107988 0.0 
1.007 -0.000636786 0.0 
1.0062 -0.000411773 0.0 
0.00597936 -0.000401327 0.0 
1.00807 -0.00711868 0.0 
1.00537 -0.000165472 0.0 
1.00082 -0.00177439 0.0 
0.977339 0.00168365 0.0 
0 0 0.0 
0.407819 0.0267133 0.0 
0 0 0.0 
0.384276 -0.010853 0.0 
0.0365002 0.00726922 0.0 
0.0284943 0.00253772 0.0 
0.962326 -0.0565837 0.0 
1.00392 0 0.0 
0.283892 -0.0409417 0.0 
1.00573 -0.00116752 0.0 
0 0 0.0 
0.184392 -0.0201889 0.0 
0.0396776 0.00143422 0.0 
0.000903215 -9.47811e-05 0.0 
6.67511e-13 -2.28956e-14 0.0 
0.332027 -0.00587977 0.0 
1.00475 0.000191611 0.0 
1.01304 -0.0055795 0.0 
0.0152925 0.000683788 0.0 
0.00716058 -0.000514232 0.0 
0.203629 0.0173505 0.0 
0.124676 0.0293094 0.0 
1 0.000232028 0.0 
0.99912 0.000425302 0.0 
1.00394 0.000251881 0.0 
0.833463 0.117155 0.0 
0.0296821 -0.00454897 0.0 
0.260332 0.022852 0.0 
1.00355 -0.000330808 0.0 
0 0 0.0 
0.0248023 0.00165753 0.0 
1.00104 -0.00132823 0.0 
0.86884 -0.0163971 0.0 
0.862339 0.0304563 0.0 
0.941781 0.268212 0.0 
1.00079 0 0.0 
0.0307068 -0.0168126 0.0 
0.999795 -0.000811247 0.0 
0.0138278 0.000790986 0.0 
1.01355 -5.11429e-05 0.0 
1.00771 -0.00209795 0.0 
0.812765 0.0140984 0.0 
1.10632 0.0955845 0.0 
0.974588 -0.000752592 0.0 
0.00311482 -0.000776071 0.0 
1.00742 0.00037322 0.0 
1.00585 -0.0450212 0.0 
1.00712 0.000919391 0.0 
0.882494 0.244203 0.0 
0.977866 0.00186924 0.0 
1.00504 -0.00247307 0.0 
1.00833 0.00133428 0.0 
0.998894 0.00447662 0.0 
1.00381 0.00179164 0.0 
1.00758 0.000910678 0.0 
1.00173 -0.00050507 0.0 
0.723172 -0.0308672 0.0 
0.0462803 0.00213611 0.0 
1.00635 -0.000525986 0.0 
1.00591 -7.20949e-05 0.0 
1.00468 -0.00283167 0.0 
0.0490672 0.00120584 0.0 
1.00561 0.000501647 0.0 
1.00081 -0.00218591 0.0 
1.00501 -0.00222499 0.0 
0.0141012 -0.00245738 0.0 
0.166676 0.0506495 0.0 
0.108197 -0.0153492 0.0 
0.0329402 -0.00340635 0.0 
1.00657 -0.000807232 0.0 
1.12542 0.0847346 0.0 
1.00562 0.000307803 0.0 
1 -0.000951723 0.0 
1.0062 0.00140363 0.0 
0 0 0.0 
1.00591 0.00149827 0.0 
0.493553 -0.0224395 0.0 
0.406116 -0.0978616 0.0 
1.00595 -0.0010248 0.0 
0.955484 0.028145 0.0 
1 0 0.0 
1.00738 -0.000817092 0.0 
1.00622 0.00110273 0.0 
0.981817 0.139904 0.0 
0.0469501 -0.00259702 0.0 
1.03999 -0.00266519 0.0 
1.00603 0.00102074 0.0 
1.01332 0.00363591 0.0 
1.00267 -0.00385071 0.0 
0.997599 0.00165792 0.0 
0.023374 -0.00334534 0.0 
1.00538 -0.00417544 0.0 
1.00001 -0.000260135 0.0 
0.705817 0.0132344 0.0 
0.861485 0.031326 0.0 
0.00885843 -0.0010637 0.0 
1.00759 0.000401379 0.0 
1.00875 0.000148068 0.0 
1.00568 -0.000255526 0.0 
0.00317501 -0.000615661 0.0 
0.0268272 7.13839e-05 0.0 
1.01032 0.00989016 0.0 
0.0394008 0.00039853 0.0 
1.007 0.000693715 0.0 
0.402021 0.00499314 0.0 
0.0608652 -0.0131789 0.0 
0.431825 0.00796842 0.0 
0 0 0.0 
0.992421 -0.00612367 0.0 
1.00657 -0.00234073 0.0 
1.00588 -2.70633e-05 0.0 
1.00353 -0.0025714 0.0 
1.00583 -0.000140518 0.0 
1.00084 -0.00273882 0.0 
1.00353 -0.00196799 0.0 
0.181682 0.000364699 0.0 
0.0864546 0.00624074 0.0 
0 0 0.0 
1.00372 0.00156678 0.0 
1.00385 -0.00196856 0.0 
0.388621 0.00544591 0.0 
1.00425 -0.000268508 0.0 
1.04079 0.023999 0.0 
0.561957 -0.0357039 0.0 
0.274153 0.00486959 0.0 
1.00246 -0.00135791 0.0 
0 0 0.0 
0.893324 0.0140386 0.0 
1.00529 -0.00140556 0.0 
1.00008 -0.000691681 0.0 
-1.80491e-50 3.84098e-51 0.0 
1.00398 -0.000403636 0.0 
0.927545 -0.164241 0.0 
1.00128 -0.00668813 0.0 
0 0 0.0 
0 0 0.0 
1.0044 -0.00298829 0.0 
0.34115 0.0551818 0.0 
0.417409 0.00194862 0.0 
0.501778 -0.0128376 0.0 
0.300905 0.00832515 0.0 
0.433792 -0.00108463 0.0 
1.00795 -0.000190034 0.0 
1.01243 0.026145 0.0 
0.013997 0.000930194 0.0 
1.00593 -0.000384953 0.0 
1.00255 -0.000221708 0.0 
1.00414 -0.00252048 0.0 
0 0 0.0 
1.00086 0.0168781 0.0 
0.984649 0.0042953 0.0 
-1.22522e-67 3.76387e-68 0.0 
1.00178 -0.00185993 0.0 
1.00669 -0.000751372 0.0 
0.262973 0.187565 0.0 
1.01083 -0.000536259 0.0 
1.00612 -0.000459285 0.0 
0.333838 -0.00159633 0.0 
0.353904 -0.00178151 0.0 
1.00539 0.000277564 0.0 
0.0363736 -0.00716319 0.0 
1.00683 0.000147119 0.0 
0.787828 0.141145 0.0 
0.912825 -0.0162449 0.0 
1.00588 -0.000614883 0.0 
1.00605 0.000353687 0.0 
0.99988 0.000976759 0.0 
1.00728 0.000247855 0.0 
1.00007 -0.00022293 0.0 
0.346548 0.000988606 0.0 
-2.09281e-90 8.37276e-93 0.0 
1.00302 -0.00382455 0.0 
0.79443 -0.00129597 0.0 
0.999832 -0.000285454 0.0 
0.997672 0.00434694 0.0 
0.992711 -0.00207471 0.0 
1.00001 -0.000133359 0.0 
0.886801 -0.0210766 0.0 
1.05752 0.0956864 0.0 
0.997487 0.0123364 0.0 
0 0 0.0 
1.00322 0.00220357 0.0 
0.00163495 -0.000496229 0.0 
0.0313246 -0.00324029 0.0 
0.0370817 -0.00396302 0.0 
0.30039 0.126216 0.0 
0.835629 -0.0515576 0.0 
1 -0.00025448 0.0 
0.322923 -0.234614 0.0 
0.389874 0.0862701 0.0 
1.00332 0.00131343 0.0 
0 0 0.0 
1.00244 0.00981064 0.0 
1.00714 0.00083574 0.0 
1.00519 0.00144753 0.0 
1.0059 2.68384e-05 0.0 
0.0125701 0.000333338 0.0 
0.903517 0.063137 0.0 
0.402674 0.0314858 0.0 
0 0 0.0 
1.0053 0.000105013 0.0 
0.050332 0.00129096 0.0 
0.236062 0.00417992 0.0 
0.0551648 -0.00479402 0.0 
0.481999 0.0674804 0.0 
1.00815 0.00201004 0.0 
0.911071 -0.0563125 0.0 
0.99429 0.00235284 0.0 
0.885823 -0.0548756 0.0 
0.0151706 -0.0281016 0.0 
1.00486 0.000341732 0.0 
0.0259212 0.00122777 0.0 
1.00157 -0.000761216 0.0 
0.939222 0.0504594 0.0 
0.0175834 0.000834153 0.0 
0.914744 -0.373139 0.0 
1.00297 -0.0025104 0.0 
1.00239 -0.00352354 0.0 
0.970962 -0.0376532 0.0 
0.999997 -0.000438748 0.0 
1.00441 -0.00107607 0.0 
1.00492 0.00179715 0.0 
1.006 -0.00116967 0.0 
1.00319 -0.000529913 0.0 
1.00686 0.000294425 0.0 
0.0728752 -0.0100236 0.0 
1.00384 -0.000509272 0.0 
0.999762 0.00185252 0.0 
0.999989 0.000294689 0.0 
1.00431 9.82237e-05 0.0 
0.112653 0.0152336 0.0 
1.00553 0 0.0 
0.883842 -0.0207189 0.0 
-1.71663e-253 -2.12206e-254 0.0 
0.791017 0.00186667 0.0 
1.00415 0.00172285 0.0 
1.00243 -0.000656265 0.0 
1.00013 -0.000258882 0.0 
1.11674 0.0439968 0.0 
0.00645002 -0.00130677 0.0 
0.968478 0.00270941 0.0 
0.698634 0.00431437 0.0 
0.620774 0.0268869 0.0 
1.00678 -0.00107933 0.0 
0.0242604 0.00086191 0.0 
0.169526 0.0583812 0.0 
0.441055 -0.016216 0.0 
0.88632 0.0155041 0.0 
1.01157 -0.0134815 0.0 
0.977375 -0.00532738 0.0 
0.0809181 0.054964 0.0 
1.00164 0.148558 0.0 
1.00332 0 0.0 
1.00552 0.000260912 0.0 
0.914724 0.0302425 0.0 
1.00585 3.86232e-05 0.0 
0.656583 0.0110777 0.0 
0.61231 -0.431446 0.0 
1.00589 -0.00051989 0.0 
0.395801 -0.00963221 0.0 
0.08014 0.00126422 0.0 
1.00124 -0.00226079 0.0 
1.01005 -0.00184058 0.0 
0.0470567 -0.00807789 0.0 
1.00556 0.000580024 0.0 
0.935515 -0.000330973 0.0 
1.00711 -0.000578512 0.0 
1.0038 -0.00172851 0.0 
0.974342 -0.0229615 0.0 
0.995497 0.00338461 0.0 
1.00567 -0.000703851 0.0 
0.00349696 -0.000711562 0.0 
-1.85355e-302 -8.02167e-304 0.0 
1.00097 -0.000851523 0.0 
1.00012 -0.000685859 0.0 
0.939885 -0.283543 0.0 
0.999478 0.000173653 0.0 
0.904568 -0.0944408 0.0 
0.15725 0.00863683 0.0 
1.00475 -0.00365352 0.0 