<VTKFile type="UnstructuredGrid" version="0.1" byte_order="LittleEndian">
  <UnstructuredGrid>
    <Piece NumberOfPoints="13752" NumberOfCells="27315">
      <Points>
        <DataArray type = "Float64" NumberOfComponents="3" format="ascii">
0 0 0.0 
14 0 0.0 
14 8 0.0 
0 8 0.0 
4.93798 3.97131 0.0 
3.97586 4.01385 0.0 
4.0263 4.02725 0.0 
4.37625 4.03362 0.0 
0.382322 2.91093 0.0 
4.05759 3.99789 0.0 
4.33346 4.03608 0.0 
14 7.50974 0.0 
4.07057 3.9639 0.0 
4.53824 7.43039 0.0 
0.218711 6.38411 0.0 
3.98741 4.04054 0.0 
3.98768 4.02653 0.0 
4.34316 3.97884 0.0 
4.18919 4.08851 0.0 
3.9757 3.93339 0.0 
5.24665 4.02887 0.0 
4.41234 4.03569 0.0 
4.52111 4.0379 0.0 
4.67405 4.10923 0.0 
4.26831 4.04358 0.0 
4.80484 4.03022 0.0 
4.61584 4.00791 0.0 
4.02022 3.98429 0.0 
12.1265 0 0.0 
13.4653 0.705634 0.0 
13.0308 3.29431 0.0 
4.14761 4.04357 0.0 
4.20537 3.96901 0.0 
4.13489 4.05432 0.0 
4.20844 3.98785 0.0 
4.48585 4.03471 0.0 
4.52016 3.99748 0.0 
7.68594 3.99553 0.0 
4.36984 3.99431 0.0 
0 3.36284 0.0 
4.93697 3.93496 0.0 
4.21996 3.97489 0.0 
5.23564 4.1026 0.0 
4.27631 3.98851 0.0 
4.23244 4.06965 0.0 
4.0273 4.01367 0.0 
8.79181 7.69132 0.0 
2.3455 6.64237 0.0 
4.62342 4.01415 0.0 
4.31306 4.02997 0.0 
5.17517 4.1161 0.0 
3.27974 4.42354 0.0 
4.05635 4.04136 0.0 
13.6419 7.13944 0.0 
4.12607 4.05951 0.0 
0 1.32427 0.0 
4.2483 4.03635 0.0 
4.0955 3.94899 0.0 
4.03444 4.04627 0.0 
4.00163 4.02959 0.0 
4.02005 3.99731 0.0 
5.23503 8 0.0 
4.30375 3.97965 0.0 
4.47109 4.03418 0.0 
4.67164 4.0183 0.0 
5.35828 4.09214 0.0 
4.52128 4.01099 0.0 
4.15865 3.96029 0.0 
4.00413 3.99984 0.0 
4.48103 4.01722 0.0 
4.00486 3.95977 0.0 
4.42832 4.0371 0.0 
4.18813 3.97953 0.0 
4.49558 3.99673 0.0 
4.06521 4.00006 0.0 
5.18649 3.77098 0.0 
4.04672 4.0202 0.0 
4.94501 3.90266 0.0 
4.08075 4.03595 0.0 
4.54772 3.97659 0.0 
3.96947 4.02134 0.0 
4.3757 3.99421 0.0 
7.16763 4.21956 0.0 
3.96297 3.96024 0.0 
4.21254 3.97074 0.0 
4.15932 4.03394 0.0 
5.143 4.10279 0.0 
4.11692 3.94964 0.0 
4.22308 4.09104 0.0 
3.95785 3.95439 0.0 
6.70909 6.94059 0.0 
4.02972 4.04518 0.0 
0 1.05189 0.0 
4.23206 4.07447 0.0 
3.97141 4.03046 0.0 
4.14603 3.98607 0.0 
3.97561 4.03322 0.0 
3.97816 4.02179 0.0 
4.04633 4.03304 0.0 
3.96767 4.02507 0.0 
4.53971 3.97638 0.0 
4.61085 4.96958 0.0 
4.30023 3.97509 0.0 
4.54225 3.97864 0.0 
4.00011 4.02449 0.0 
3.63184 3.86559 0.0 
4.54991 3.98013 0.0 
1.97176 2.13711 0.0 
6.95962 7.64891 0.0 
9.44469 4.18177 0.0 
4.09508 3.98315 0.0 
4.73521 7.52615 0.0 
4.53737 3.98764 0.0 
3.98271 4.09412 0.0 
5.2844 3.91484 0.0 
8.24405 4.21211 0.0 
4.21259 3.97823 0.0 
4.1928 3.98715 0.0 
4.06171 3.97809 0.0 
12.8262 0.365959 0.0 
4.11581 4.05249 0.0 
4.06757 3.97375 0.0 
4.18906 4.05408 0.0 
4.33078 4.04078 0.0 
4.3855 4.03241 0.0 
4.21532 3.98889 0.0 
3.87711 3.99789 0.0 
4.10117 3.96057 0.0 
4.04266 3.98582 0.0 
4.04639 4.34602 0.0 
3.93138 3.94846 0.0 
6.37297 2.73989 0.0 
6.50541 6.65271 0.0 
4.0914 3.96216 0.0 
4.48179 4.01851 0.0 
5.20281 3.96498 0.0 
4.52397 4.009 0.0 
4.43341 4.48124 0.0 
4.65935 4.04515 0.0 
12.6474 3.41509 0.0 
4.05312 3.99197 0.0 
13.7435 8 0.0 
4.11702 4.02719 0.0 
6.67367 0 0.0 
4.00932 4.01975 0.0 
6.82471 4.26136 0.0 
4.25923 3.99025 0.0 
4.38166 4.01312 0.0 
4.51051 3.93099 0.0 
5.25548 4.08136 0.0 
4.16186 4.02751 0.0 
4.5494 4.03673 0.0 
5.13666 4.00665 0.0 
4.25527 4.05344 0.0 
6.22735 7.50315 0.0 
6.5779 4.4103 0.0 
4.1631 4.04562 0.0 
4.50708 4.0226 0.0 
4.05486 4.11052 0.0 
8.95603 7.57132 0.0 
4.27027 4.04303 0.0 
7.34687 4.75133 0.0 
3.98122 4.01031 0.0 
11.5703 4.18823 0.0 
4.39605 3.99423 0.0 
4.17858 4.03055 0.0 
13.0674 7.81526 0.0 
4.99089 3.94999 0.0 
11.3934 4.07618 0.0 
4.04221 3.9916 0.0 
4.00498 4.00961 0.0 
4.54778 4.01674 0.0 
4.08927 3.9549 0.0 
4.22147 4.0961 0.0 
4.05958 4.04239 0.0 
4.20383 4.03713 0.0 
4.57278 4.01593 0.0 
4.09428 3.96323 0.0 
7.97633 2.05223 0.0 
11.3713 7.83957 0.0 
4.01703 7.79668 0.0 
4.18332 3.96996 0.0 
4.32637 4.10272 0.0 
5.45662 5.22808 0.0 
4.2495 3.98856 0.0 
12.0372 1.49526 0.0 
4.11016 3.98412 0.0 
2.15974 5.93568 0.0 
10.4619 3.53679 0.0 
3.95154 3.97078 0.0 
5.11537 3.91723 0.0 
4.04116 4.02592 0.0 
8.40952 2.0809 0.0 
10.4908 7.41058 0.0 
6.38052 3.13775 0.0 
5.9291 5.15993 0.0 
4.67113 5.54414 0.0 
4.41292 3.99719 0.0 
9.4176 1.73395 0.0 
4.16781 3.98692 0.0 
5.24537 4.1668 0.0 
4.20501 3.97964 0.0 
4.53946 3.99846 0.0 
4.04424 3.9838 0.0 
4.07091 4.07077 0.0 
8.35832 2.9685 0.0 
13.4699 7.45697 0.0 
4.44023 4.02969 0.0 
4.01229 3.97705 0.0 
4.06076 3.97364 0.0 
3.83237 4.33745 0.0 
4.64861 3.98994 0.0 
4.09808 4.03387 0.0 
3.92863 5.87877 0.0 
4.00577 3.97873 0.0 
4.46979 4.03982 0.0 
2.12581 0 0.0 
1.03284 2.15008 0.0 
5.29673 4.05796 0.0 
7.62224 2.88267 0.0 
7.22419 0.703495 0.0 
4.66498 4.02964 0.0 
4.11272 3.98511 0.0 
4.94158 3.98327 0.0 
4.05425 4.02926 0.0 
3.96181 4.02583 0.0 
4.1403 4.03691 0.0 
5.8599 3.0813 0.0 
4.48072 4.00732 0.0 
4.05908 4.0108 0.0 
3.99732 3.99732 0.0 
4.55037 4.00822 0.0 
4.09467 4.03941 0.0 
4.6103 3.91602 0.0 
4.15028 4.0186 0.0 
4.38845 4.01434 0.0 
4.01956 4.10183 0.0 
4.11575 4.03408 0.0 
4.1678 4.04329 0.0 
4.20274 4.07949 0.0 
4.32046 1.78584 0.0 
12.5015 1.14918 0.0 
4.09797 3.95385 0.0 
4.23052 4.09368 0.0 
4.20868 4.08388 0.0 
4.52943 3.99712 0.0 
0 5.9645 0.0 
5.3614 4.11484 0.0 
4.01726 4.00147 0.0 
4.40354 3.99297 0.0 
4.50255 4.01296 0.0 
0.762019 5.13086 0.0 
4.21032 4.03408 0.0 
4.10561 3.98501 0.0 
4.72675 4.01396 0.0 
3.99474 4.00051 0.0 
8.82235 8 0.0 
4.05115 4.02832 0.0 
4.20767 3.95406 0.0 
4.2355 4.09935 0.0 
4.69512 3.9114 0.0 
4.62536 3.98275 0.0 
4.58474 4.50068 0.0 
4.17261 4.10237 0.0 
4.06329 4.04721 0.0 
4.01384 4.01565 0.0 
4.18805 3.96826 0.0 
4.40702 4.02791 0.0 
4.52409 4.03052 0.0 
4.16346 4.15568 0.0 
0.417479 6.31883 0.0 
4.05731 4.02647 0.0 
2.61514 0.506135 0.0 
4.44499 3.99615 0.0 
4.8857 3.98105 0.0 
3.98977 4.04663 0.0 
3.99153 4.04254 0.0 
4.57553 4.01147 0.0 
3.60014 3.7226 0.0 
12.529 6.19703 0.0 
4.06431 4.05591 0.0 
3.97296 4.00674 0.0 
11.3714 7.19716 0.0 
9.192 5.81999 0.0 
4.90839 4.00372 0.0 
3.53429 0 0.0 
4.67134 3.89044 0.0 
4.08953 4.02996 0.0 
11.016 2.69137 0.0 
2.30378 3.03595 0.0 
4.00988 3.97037 0.0 
3.94265 3.95401 0.0 
7.40997 8 0.0 
4.02321 3.97317 0.0 
2.86414 6.59491 0.0 
4.17814 3.98587 0.0 
7.58471 5.24477 0.0 
4.20997 0.181458 0.0 
4.00964 3.98933 0.0 
4.37556 4.03906 0.0 
6.78993 2.13526 0.0 
4.45074 4.02298 0.0 
0.846754 0.565038 0.0 
13.4868 6.98366 0.0 
4.24217 3.9793 0.0 
5.22012 4.00045 0.0 
1.2142 8 0.0 
7.59973 7.22298 0.0 
12.6277 1.80732 0.0 
14 4.58149 0.0 
5.85073 0.410811 0.0 
13.0902 7.46595 0.0 
4.29185 4.03856 0.0 
4.02912 3.96643 0.0 
3.9878 3.95947 0.0 
7.7278 7.63087 0.0 
4.05396 4.05241 0.0 
4.51303 3.98607 0.0 
9.99741 4.76079 0.0 
3.96066 4.00697 0.0 
4.58847 4.06565 0.0 
4.96395 4.01931 0.0 
13.1661 5.68046 0.0 
13.7895 0 0.0 
4.10795 4.02897 0.0 
4.52686 4.01389 0.0 
11.4357 2.10385 0.0 
4.18014 4.09123 0.0 
4.41757 3.97285 0.0 
4.00791 4.0033 0.0 
4.0088 3.9805 0.0 
9.75515 2.36072 0.0 
4.06981 4.08973 0.0 
3.78513 4.26857 0.0 
4.02947 3.97325 0.0 
4.51349 3.99718 0.0 
4.6454 3.91884 0.0 
4.01129 4.00596 0.0 
3.90674 3.97638 0.0 
6.26265 7.14539 0.0 
3.10914 5.59567 0.0 
4.00241 3.93804 0.0 
4.01755 3.97046 0.0 
13.8261 5.946 0.0 
4.9862 3.93198 0.0 
4.02424 4.00419 0.0 
6.42419 4.18044 0.0 
4.14091 4.04918 0.0 
4.53977 3.92791 0.0 
4.05373 4.0206 0.0 
4.0593 4.0207 0.0 
3.31161 1.01031 0.0 
4.52442 4.04136 0.0 
4.11868 3.97589 0.0 
4.15516 3.94365 0.0 
4.21078 3.98014 0.0 
4.01683 3.96357 0.0 
8.32777 8 0.0 
4.35851 3.98924 0.0 
11.1865 7.25481 0.0 
2.92109 4.80681 0.0 
4.70958 7.08222 0.0 
9.31957 3.91483 0.0 
4.00437 3.9841 0.0 
13.0519 3.93435 0.0 
4.0134 3.97877 0.0 
3.03193 6.72582 0.0 
4.96932 3.97465 0.0 
4.01079 3.9893 0.0 
5.0655 4.08394 0.0 
4.36156 4.08272 0.0 
6.40969 2.27914 0.0 
4.19254 4.05553 0.0 
2.49698 3.5985 0.0 
10.4928 5.29986 0.0 
4.86181 5.24939 0.0 
4.21639 4.03358 0.0 
4.55145 4.028 0.0 
4.53888 4.02662 0.0 
11.5792 7.84461 0.0 
0.551344 1.2516 0.0 
4.02575 3.96118 0.0 
7.09862 3.25567 0.0 
6.49849 5.21743 0.0 
4.07025 4.03432 0.0 
4.22288 4.24038 0.0 
4.00773 4.00001 0.0 
4.65142 4.02458 0.0 
4.76302 3.98336 0.0 
4.41957 3.9946 0.0 
11.8351 6.74811 0.0 
12.0185 5.47286 0.0 
4.1127 3.96242 0.0 
3.88497 3.53295 0.0 
4.15116 3.93854 0.0 
4.13176 4.07898 0.0 
10.2186 2.28825 0.0 
1.60222 4.99327 0.0 
4.26947 3.99086 0.0 
4.19863 4.03399 0.0 
4.00813 4.01182 0.0 
4.00279 3.99128 0.0 
4.05385 4.00986 0.0 
4.85809 4.01513 0.0 
4.00414 3.99309 0.0 
4.77965 4.48785 0.0 
6.32476 7.00417 0.0 
12.5996 5.63737 0.0 
4.64409 4.00438 0.0 
4.06042 4.07838 0.0 
9.8061 3.0874 0.0 
1.81629 0.960727 0.0 
4.52303 3.99892 0.0 
10.2824 1.17531 0.0 
4.20862 3.97868 0.0 
11.5808 3.97719 0.0 
1.48233 7.50025 0.0 
4.45456 2.45816 0.0 
14 3.6095 0.0 
3.96806 4.01296 0.0 
11.0968 5.75296 0.0 
4.84909 4.03252 0.0 
3.58099 4.19595 0.0 
4.51402 4.03337 0.0 
4.16509 4.04324 0.0 
4.51221 4.06041 0.0 
4.5467 4.03146 0.0 
4.27477 3.99124 0.0 
8.48265 5.04587 0.0 
7.55991 7.75381 0.0 
7.20657 5.05296 0.0 
3.05391 4.40989 0.0 
4.73914 4.07051 0.0 
6.98728 5.60342 0.0 
5.25032 1.89548 0.0 
4.53323 4.0151 0.0 
3.10089 2.25184 0.0 
0.198711 3.79297 0.0 
4.72583 0.194576 0.0 
4.53608 4.04095 0.0 
5.01113 4.1034 0.0 
0.200195 7.79202 0.0 
5.30927 0.171783 0.0 
3.93304 4.2885 0.0 
3.77134 4.0081 0.0 
4.05097 4.00077 0.0 
4.73668 3.89169 0.0 
4.19567 4.09357 0.0 
3.96886 4.00175 0.0 
4.64006 3.99672 0.0 
4.36261 4.03666 0.0 
4.42888 4.0439 0.0 
2.85084 3.42201 0.0 
4.01425 3.98947 0.0 
4.82507 4.1106 0.0 
4.68703 4.01622 0.0 
0.384822 4.35157 0.0 
0.347962 1.57688 0.0 
7.10579 4.68267 0.0 
13.611 1.35207 0.0 
3.69873 4.54689 0.0 
3.92942 5.61591 0.0 
7.78364 0 0.0 
6.32437 6.34013 0.0 
4.02204 4.01739 0.0 
5.62592 4.80931 0.0 
4.7383 3.87602 0.0 
6.49425 0.938237 0.0 
4.04876 3.98924 0.0 
1.64832 6.43608 0.0 
13.7604 0.5867 0.0 
13.1818 2.98063 0.0 
4.14495 4.17496 0.0 
4.16979 4.03888 0.0 
4.25841 3.96952 0.0 
[...]
<PointData>
  <DataArray type = "Float64" Name="Vitesse" NumberOfComponents="3" format="ascii">
1 0 0.0 
1.00065 0 0.0 
0.999782 0 0.0 
1 0 0.0 
0.545679 0.0147141 0.0 
0.665699 0.0456077 0.0 
0.524184 0.21762 0.0 
0.0217163 -0.00229432 0.0 
0.999969 -0.000133756 0.0 
0 0 0.0 
3.09597e-56 -1.46919e-57 0.0 
0.999767 -2.17295e-05 0.0 
0.874036 -0.0943067 0.0 
1.00512 0.000667477 0.0 
1.00001 0.000166503 0.0 
0.774767 0.197758 0.0 
0.682964 0.189537 0.0 
0.246349 0.00694621 0.0 
1.0725 0.0901104 0.0 
0.926926 -0.147074 0.0 
0.554344 -0.00761651 0.0 
0.0898585 -0.0100104 0.0 
0.221446 -0.0250392 0.0 
0.959853 -0.0454192 0.0 
0.0377901 -0.00338459 0.0 
0.372348 -0.0173056 0.0 
0.118267 -0.00186736 0.0 
0.473982 -0.121221 0.0 
1.00153 0 0.0 
1.00077 0.000264087 0.0 
0.999772 0.000934105 0.0 
0.0477498 0.00835061 0.0 
0.433043 0.00361679 0.0 
0.540384 0.0600263 0.0 
0.0307138 0.00250771 0.0 
0.154476 -0.018021 0.0 
0.0230314 0.00104123 0.0 
0.798995 0.000356972 0.0 
0.0100283 0.000666964 0.0 
1 0 0.0 
0.805468 0.0188752 0.0 
0.30025 0.00534041 0.0 
0.900168 -0.0161694 0.0 
0.0543635 0.00209287 0.0 
0.699472 0.017961 0.0 
0 0 0.0 
1.00305 -0.000416032 0.0 
1.00144 0.00192406 0.0 
0.132604 -0.0100071 0.0 
0 0 0.0 
0.944079 -0.0162468 0.0 
0.991806 0.0102436 0.0 
0.690342 0.18858 0.0 
0.999765 -5.34333e-05 0.0 
0.763124 0.104821 0.0 
1 0 0.0 
0 0 0.0 
1.03247 -0.096933 0.0 
0.925791 0.316251 0.0 
0.720768 0.309673 0.0 
0 0 0.0 
1.00546 0 0.0 
0.222159 0.00601382 0.0 
0.133938 -0.0159462 0.0 
0.201469 -0.0111348 0.0 
0.858309 -0.0132974 0.0 
0.00847916 -0.0014831 0.0 
0.686648 -0.013676 0.0 
0 0 0.0 
0.0050048 -0.000576238 0.0 
0.950317 -0.262709 0.0 
0.123657 -0.0135501 0.0 
0.196271 0.00463303 0.0 
0.0265309 0.000574406 0.0 
0 0 0.0 
1.00995 0.00702468 0.0 
0 0 0.0 
0.949078 0.0168297 0.0 
0.0852423 0.0183063 0.0 
0.348408 0.0150648 0.0 
0.725876 0.0676804 0.0 
0.0146671 -0.000890855 0.0 
1.00424 -0.00468067 0.0 
0.859733 -0.137192 0.0 
0.391595 0.00484185 0.0 
0 0 0.0 
0.902982 -0.0174147 0.0 
0.981186 -0.0674835 0.0 
1.05407 0.0584421 0.0 
0.87437 -0.12465 0.0 
1.00581 -0.000758691 0.0 
0.913715 0.323977 0.0 
1 0 0.0 
0.806587 0.0263855 0.0 
0.75078 0.107321 0.0 
0.0237444 0.00275332 0.0 
0.751414 0.131648 0.0 
0.68678 0.105164 0.0 
0.433422 0.133319 0.0 
0.744367 0.0771723 0.0 
0.346921 0.0124851 0.0 
1.01793 0.00404835 0.0 
0.303298 0.00673542 0.0 
0.316222 0.0119656 0.0 
0.66069 0.311324 0.0 
0.971994 -0.0110126 0.0 
0.299681 0.0140949 0.0 
1.00009 -0.00158834 0.0 
1.00523 -0.000285216 0.0 
0.971035 -0.0124287 0.0 
0.0878867 0.000693945 0.0 
1.00527 0.000472114 0.0 
0.181347 0.00527023 0.0 
0.915273 0.149138 0.0 
0.88774 0.00964105 0.0 
0.991998 -0.00865127 0.0 
0.228209 0.00545932 0.0 
0.034858 0.00126016 0.0 
0.379095 -0.0268577 0.0 
1.00109 0.000187585 0.0 
0.584153 0.0840202 0.0 
0.542317 -0.0429327 0.0 
0.341383 0.0148406 0.0 
0.0626561 -0.00591358 0.0 
0.0199534 -0.00216782 0.0 
0.0170104 0.000642627 0.0 
0.900169 -0.0092441 0.0 
0.826337 -0.0550842 0.0 
0.0499745 -0.0114517 0.0 
1.01933 0.0568221 0.0 
0.891895 -0.0816309 0.0 
1.00752 0.000854901 0.0 
1.00628 -0.0008657 0.0 
0.82383 -0.0631055 0.0 
0.0132582 -0.00206837 0.0 
0.639057 0.00973248 0.0 
0.00242737 -0.000435415 0.0 
1.03842 0.00954966 0.0 
0.397167 -0.0360719 0.0 
0.99956 0.00118744 0.0 
0 0 0.0 
0.999797 0 0.0 
0 0 0.0 
1.00527 0 0.0 
0.529634 0.308189 0.0 
1.00741 -0.00437901 0.0 
0.0152878 0.00146177 0.0 
0 0 0.0 
0.87957 0.0138724 0.0 
0.81085 -0.0155378 0.0 
0 0 0.0 
0.232931 -0.0301586 0.0 
0.483199 -0.00179124 0.0 
0.26414 -0.00502623 0.0 
1.00572 -0.000154548 0.0 
1.0081 -0.00418802 0.0 
0.0956921 0.00675937 0.0 
0.0637423 -0.0094609 0.0 
1.01803 0.182659 0.0 
1.00283 -0.000575214 0.0 
0.0292838 -0.00227697 0.0 
1.00778 -0.0043194 0.0 
0.605211 0.0334905 0.0 
0.996307 0.000650302 0.0 
0.0251535 0.00116125 0.0 
0 0 0.0 
0.999854 -2.60804e-05 0.0 
0.707293 0.016589 0.0 
0.995094 0.00162077 0.0 
-6.02405e-102 -1.88741e-103 0.0 
0.0696508 0.0584443 0.0 
0.060766 -0.0120033 0.0 
0.979818 -0.0925176 0.0 
1.08825 0.0648722 0.0 
0.69171 0.181397 0.0 
7.34006e-282 -5.45123e-283 0.0 
0.07391 -0.024056 0.0 
0.783106 -0.0543236 0.0 
1.00561 0.00127972 0.0 
1.0004 -9.14026e-05 0.0 
1.00422 0.000301894 0.0 
0.422579 0.00239652 0.0 
1.04763 0.00392703 0.0 
1.01129 -0.00195175 0.0 
0.0395247 0.00299973 0.0 
1.00129 0.0010619 0.0 
0.0565409 0.000212232 0.0 
1.00077 0.00263921 0.0 
1.00287 0.00666828 0.0 
0.840224 -0.100345 0.0 
0.887971 0.0122395 0.0 
0.0523741 0.0141723 0.0 
1.00527 0.00153681 0.0 
1.00099 -0.000535435 0.0 
1.00841 0.00104885 0.0 
1.00951 -0.00288882 0.0 
1.01111 0.00322903 0.0 
1.11486e-05 7.60418e-07 0.0 
1.00415 0.00166447 0.0 
0.0241132 0.00242516 0.0 
1.00381 -0.0130479 0.0 
0.197149 0.00493991 0.0 
0.0119571 0.000576981 0.0 
0.173798 -0.0174718 0.0 
1.04806 0.241513 0.0 
1.00576 0.00225735 0.0 
0.999793 -4.60237e-05 0.0 
0.0565326 -0.00693426 0.0 
0.930414 -0.338977 0.0 
0.590678 -0.0559652 0.0 
0.98785 0.0412981 0.0 
0.24807 0.0192099 0.0 
0 0 0.0 
1.00648 0.00505995 0.0 
0.895541 -0.385076 0.0 
0.197041 -0.021264 0.0 
1.00092 0 0.0 
0.999982 -0.000608545 0.0 
0.69414 -0.0128746 0.0 
1.00641 0.00178258 0.0 
1.00536 0.000172978 0.0 
0.257281 -0.0230965 0.0 
0.0279216 0.000778419 0.0 
0.471047 0.0105846 0.0 
2.58556e-05 7.90274e-06 0.0 
0.766293 0.0644433 0.0 
0 0 0.0 
1.0089 0.00108414 0.0 
1e-307 1e-307 0.0 
0 0 0.0 
0.278178 -0.329324 0.0 
0.0198321 -0.00474781 0.0 
0.137896 0.0208173 0.0 
0.951026 0.0269282 0.0 
0 0 0.0 
6.26148e-218 -1.39682e-218 0.0 
0.964452 0.18233 0.0 
0 0 0.0 
8.59102e-05 -5.9355e-06 0.0 
0.952322 0.0617751 0.0 
1.0051 -0.00291777 0.0 
1.00112 0.000673834 0.0 
0.969802 -0.0815715 0.0 
1.06551 0.0552615 0.0 
1.00172 0.062916 0.0 
0.0313767 6.49543e-05 0.0 
1 0 0.0 
0.933256 -0.0125418 0.0 
0 0 0.0 
0.0472212 0.00204615 0.0 
0.00263867 -0.000565613 0.0 
0.999927 0.000701051 0.0 
8.74136e-280 1.08884e-281 0.0 
0.0254385 0.00216996 0.0 
0.245608 -0.00591972 0.0 
0.279697 -0.173874 0.0 
1.00299 0 0.0 
2.15219e-05 5.17304e-06 0.0 
0.745201 -0.00882825 0.0 
1.092 0.0562917 0.0 
0.950763 0.0283135 0.0 
0.298421 0.0272531 0.0 
1.03324 -0.000886846 0.0 
1.12169 0.113076 0.0 
0.817204 0.2111 0.0 
0.0995006 0.0499566 0.0 
0.460361 0.00169469 0.0 
0.00075098 -8.25315e-05 0.0 
0.146751 -0.0187167 0.0 
1.09089 0.100118 0.0 
1.00003 0.000333601 0.0 
1.34862e-149 2.9794e-150 0.0 
1.00141 -0.00059842 0.0 
0.0182026 0.00095085 0.0 
0.461415 0.013799 0.0 
0.805045 0.205634 0.0 
0.78763 0.217612 0.0 
0.0580357 -0.0183016 0.0 
0.981847 -0.0149023 0.0 
0.999617 -0.000289767 0.0 
0.977944 0.252355 0.0 
0.67544 -0.0139391 0.0 
1.00029 -0.000448157 0.0 
1.00203 -0.00345141 0.0 
0.380465 0.00116989 0.0 
1.00267 0 0.0 
1.01045 0.0241009 0.0 
0 0 0.0 
1.00157 0.0031176 0.0 
0.998502 -0.00205861 0.0 
0.963547 -0.325141 0.0 
0.87926 -0.0954348 0.0 
1.00473 0 0.0 
0.950077 -0.259115 0.0 
1.00238 0.00247341 0.0 
0.0526837 0.00141141 0.0 
1.0062 -0.00420036 0.0 
1.00363 -0.00024208 0.0 
0.360802 -0.149481 0.0 
0.0908327 -0.00896895 0.0 
1.00657 0.000544635 0.0 
0.0113948 -0.00139113 0.0 
1.00012 -0.000179673 0.0 
0.999759 -7.25735e-05 0.0 
0.2127 0.00495849 0.0 
0.513311 0.0010764 0.0 
1.00041 0 0.0 
1.00469 -0.000899081 0.0 
1.0008 0.000966433 0.0 
0.999675 0.000245032 0.0 
1.00517 -0.000173091 0.0 
0.99983 -7.02808e-05 0.0 
1.51228e-12 -4.42191e-15 0.0 
1.02092 -0.245095 0.0 
0.886865 -0.217325 0.0 
1.00446 -0.000433283 0.0 
0.962526 0.273313 0.0 
0.192456 0.00499526 0.0 
0.998684 -0.00369595 0.0 
0.747534 -0.0125395 0.0 
0.605907 -0.0504479 0.0 
0.42161 -0.00697442 0.0 
0.999546 -6.04606e-05 0.0 
1.00072 0 0.0 
0 0 0.0 
0.026381 -0.00452295 0.0 
1.00149 0.00193647 0.0 
1.09595 0.102142 0.0 
0.359159 0.00830987 0.0 
0 0 0.0 
0.878073 -0.367407 0.0 
1.00399 0.00259231 0.0 
1.04504 0.211617 0.0 
0.978255 0.0376493 0.0 
0.898913 -0.208574 0.0 
0.0263366 0.00158224 0.0 
0.928263 0.0292495 0.0 
0 0 0.0 
0.882496 -0.0376036 0.0 
1.00593 -0.000325293 0.0 
1.0023 0.00582716 0.0 
0.965805 -0.189424 0.0 
0.994645 -0.302387 0.0 
0.999669 -5.6797e-06 0.0 
0.823398 0.0172402 0.0 
0 0 0.0 
0.993553 -0.00508067 0.0 
0.30621 0.028162 0.0 
0.898205 0.0188098 0.0 
0 0 0.0 
0 0 0.0 
1.00239 -0.00152552 0.0 
0.264728 -0.0285434 0.0 
0.31285 -0.00125595 0.0 
0.979444 -0.046232 0.0 
0.187614 0.00526326 0.0 
1.00616 -0.280875 0.0 
1.00364 0 0.0 
0.0835966 0.00318282 0.0 
1.00041 -0.000465184 0.0 
0.997492 0.00675956 0.0 
1.00569 0.000953106 0.0 
0.942192 0.00141382 0.0 
0.804811 -0.41339 0.0 
0.999452 0.000654775 0.0 
0.892202 -0.319004 0.0 
1.00274 0.00230182 0.0 
0.532146 0.0131554 0.0 
0.312494 -0.112674 0.0 
0.818378 -0.0214345 0.0 
0.822627 -0.0217354 0.0 
1.00701 0.000359081 0.0 
0.380994 0.015568 0.0 
0.996455 -0.00109907 0.0 
0.999111 -0.00237416 0.0 
1.01379 0.00155466 0.0 
2.72197e-280 3.39055e-282 0.0 
0.148394 -0.0237534 0.0 
0.124971 -0.0180619 0.0 
1.00029 -7.74762e-05 0.0 
1.00004 -0.000232062 0.0 
1.03636 -0.253101 0.0 
1.00727 0.00183402 0.0 
1.00808 -0.00304381 0.0 
0.126119 0.0342313 0.0 
1.07297 0.0539929 0.0 
0 0 0.0 
0.209186 -0.0194753 0.0 
0.383424 0.0176911 0.0 
0.0304979 0.000736132 0.0 
0.999931 -0.00047394 0.0 
0.999252 -0.000477307 0.0 
0.740146 -0.0362019 0.0 
0.999341 -0.0271918 0.0 
1.02916 -0.0556356 0.0 
1.07163 0.15365 0.0 
1.00326 0.0026338 0.0 
0.999568 0.00176827 0.0 
0.00960844 0.000928464 0.0 
0 0 0.0 
0.0805166 0.0456897 0.0 
0.499751 -0.352366 0.0 
0 0 0.0 
0.350114 -0.00578485 0.0 
0.253324 -0.175418 0.0 
1.02584 -0.00792957 0.0 
1.00605 -0.000447742 0.0 
0.999431 -0.000211346 0.0 
0.162779 0.00411054 0.0 
1.03174 0.235772 0.0 
1.00449 0.00405478 0.0 
1.00058 -0.000727578 0.0 
0.000315898 8.6678e-06 0.0 
1.00309 0.00117228 0.0 
0.218195 0.00540709 0.0 
0.996254 0.00180515 0.0 
1.00059 0.000415921 0.0 
1.0075 -0.00473496 0.0 
0.999845 0.000462268 0.0 
0.713768 0.0221571 0.0 
0.999484 -0.00128931 0.0 
0.413802 -0.0165216 0.0 
0.977424 0.0157561 0.0 
0.165897 -0.0200716 0.0 
6.26922e-05 2.60799e-07 0.0 
0.507652 -0.0407429 0.0 
0.176385 -0.0248899 0.0 
0.0108983 0.00161324 0.0 
1.00406 -0.00595718 0.0 
1.00463 -0.000273003 0.0 
1.00705 -0.00403317 0.0 
0.993655 0.00668328 0.0 
0.694606 -0.0396067 0.0 
1.00693 -0.00281248 0.0 
1.00675 -0.00134412 0.0 
0.0379723 -0.00642895 0.0 
1.00124 -0.00398747 0.0 
0.999992 2.97964e-05 0.0 
1.00427 -0.000214222 0.0 
0.269411 -0.0300662 0.0 
0.911157 -0.0221668 0.0 
1.00001 2.33604e-05 0.0 
1.00481 -0.000127025 0.0 
0.993401 0.060053 0.0 
0.944677 0.00109463 0.0 
6.43273e-261 -5.00654e-262 0.0 
0.996573 0.0235157 0.0 
1.0956 0.0880273 0.0 
0.706818 -0.0456527 0.0 
0.191083 0.0129833 0.0 
0.0435117 -0.00359669 0.0 
0.212559 -0.0202873 0.0 
0.995681 -0.00343128 0.0 
0.154172 -0.0292727 0.0 
0.9454 -0.0335957 0.0 
0.211288 -0.00855712 0.0 
0.99996 0.000204768 0.0 
1.00001 -0.000167842 0.0 
1.00806 -0.0043411 0.0 
1.0006 0.000452235 0.0 
0.997366 0.0238119 0.0 
1.00724 0.00664096 0.0 
1.00502 0 0.0 
1.00687 -0.00101582 0.0 
8.35467e-208 3.57124e-208 0.0 
1.01134 -0.00440406 0.0 
1.01559 0.0209966 0.0 
1.00558 -6.67811e-05 0.0 
4.96013e-50 -2.31981e-51 0.0 
1.00057 0.00143328 0.0 
1.00068 0.000192265 0.0 
0.999985 0.000891386 0.0 
1.07389 0.100499 0.0 
0 0 0.0 
0.407778 0.00595187 0.0 
0.181528 0.0629429 0.0 
1.00784 -0.00499667 0.0 
0.785385 0.343003 0.0 
0.999969 -3.75936e-05 0.0 
1.00655 0.0011889 0.0 
0.190345 -0.0245993 0.0 
0.069915 0.00328427 0.0 
1.0252 0.0132867 0.0 
3.15495e-05 -2.13061e-06 0.0 
1.0009 -0.000319736 0.0 
0.179941 0.176318 0.0 
0.772001 -0.0282148 0.0 
0.505017 0.0141272 0.0 
0.00662675 -0.000191427 0.0 
0 0 0.0 
0.980878 0.00548624 0.0 
1.00526 2.77894e-05 0.0 
1.0018 -0.000915392 0.0 
0.329948 0.00538439 0.0 
0.106828 0.000866444 0.0 
1.00532 -1.10955e-05 0.0 
1.00011 -0.000547056 0.0 
1.00543 0.00211413 0.0 
1.00664 0.00192857 0.0 
1.00616 0.00281863 0.0 
1.00529 4.416e-05 0.0 
0.0913122 0.0157924 0.0 
1.00605 3.90822e-05 0.0 
1.00433 -0.00122062 0.0 
1.00442 0.000785514 0.0 
0.515682 -0.0374834 0.0 
0.544036 0.0100533 0.0 
1.00459 0.00345901 0.0 
1.00146 -0.00687685 0.0 
1.0172 0.0171766 0.0 
0.996521 -0.0642868 0.0 
0.999453 3.65096e-05 0.0 
0.803441 0.319357 0.0 
0.984444 0.0488739 0.0 
0.0329358 0.000506257 0.0 
1.0002 -0.00056733 0.0 
0.00727897 0.000770636 0.0 
0 0 0.0 
0.230264 -0.0146876 0.0 
0.25419 -0.0494069 0.0 
0.324922 0.00798599 0.0 
0 0 0.0 
0.999423 -5.22486e-05 0.0 
0.954734 0.0859767 0.0 
1.00603 0.00227136 0.0 
0.692921 0.00083286 0.0 
1.00011 0.000798669 0.0 
1.01873 0.220802 0.0 
0.212991 0.00551384 0.0 
0.0344174 0.013005 0.0 
0.875652 -0.0769743 0.0 
0.0445846 0.000658813 0.0 
1.00352 -0.0016013 0.0 
0.962061 -0.283743 0.0 
1.04135e-48 -1.06131e-49 0.0 
0.924549 -0.305604 0.0 
0.997351 -0.000762692 0.0 
0.99936 0.000719578 0.0 
1.00645 0.000467044 0.0 
0.0139874 0.00193285 0.0 
1.00002 -0.00018191 0.0 
-1.591e-91 -1.19137e-92 0.0 
0 0 0.0 
1.00324 0.00500055 0.0 
0.23531 -0.000748836 0.0 
0.482452 -0.0567344 0.0 
6.48442e-07 -2.05495e-07 0.0 
1.00373 0.00118133 0.0 
1.00024 0.000354027 0.0 
1.00639 -0.002788 0.0 
0.00412838 0.000166544 0.0 
1.00208 -0.000661078 0.0 
1.01014 0.00401493 0.0 
0.228239 0.0227795 0.0 
1.01826 0.00992136 0.0 
0.000365896 5.05933e-05 0.0 
0.00810891 -0.000186201 0.0 
0.641614 0.0147413 0.0 
0.705372 0.0909566 0.0 
0.867337 -0.0505851 0.0 
1.00221 0.00329508 0.0 
1.0017 0.000492789 0.0 
1.00859 0.00535157 0.0 
2.47144e-06 -4.33404e-08 0.0 
0.605531 -0.0472466 0.0 
0.998536 -0.00105871 0.0 
1.00391 0.00160011 0.0 
1.00887 0.0024778 0.0 
0.0445765 -0.0045115 0.0 
1.00003 0.000303112 0.0 
1.00311 0.00305583 0.0 
6.60974e-06 -8.35027e-07 0.0 
1.0067 -0.000294727 0.0 
0.999792 -1.29105e-05 0.0 
1.00046 0.00264179 0.0 
0.755667 0.0258466 0.0 
1.00836 -0.00749496 0.0 
1.00506 -0.000126266 0.0 
0.998678 -0.00600974 0.0 
0.00983651 -0.000820509 0.0 
1.01008 -0.00343115 0.0 
1.00268 0.000373829 0.0 
1.0059 -0.00148916 0.0 
0.385013 -0.0109204 0.0 
0 0 0.0 
0.999885 0.00181582 0.0 
1.00829 0.00175731 0.0 
1.00006 -0.000439078 0.0 
0.000704677 -9.0264e-06 0.0 
0.932034 0.0636366 0.0 
1.00219 0.000766379 0.0 
0 0 0.0 
1.01055 0.0194917 0.0 
1.00056 0.000281 0.0 
1.12181 0.0823366 0.0 
0.999281 9.48188e-05 0.0 
1.00194 0.000312071 0.0 
0.344083 0.0105657 0.0 
0.0405605 -0.00327183 0.0 
1.02747 -0.100957 0.0 
0.204206 0.0173668 0.0 
0.789453 -0.0523114 0.0 
0.579282 0.0718729 0.0 
1.0015 0 0.0 
0 0 0.0 
1.00388 0.000242781 0.0 
0 0 0.0 
0.960068 -0.0248653 0.0 
1.00667 -0.00391591 0.0 
1.00447 -0.00553343 0.0 
1.03074 -0.0259118 0.0 
0.162903 0.0104241 0.0 
0.256695 0.0226126 0.0 
0.87016 -0.0165711 0.0 
0.863072 0.030582 0.0 
0.131157 0.0382369 0.0 
1.00045 0.206076 0.0 
0.0308728 -0.0168937 0.0 
0.0655163 0.0013673 0.0 
0.0163921 -0.00253463 0.0 
0.835726 0.0839406 0.0 
0.916748 -0.00561514 0.0 
0.332687 -0.00584657 0.0 
0.0155613 0.00195729 0.0 
0.999628 0.00056755 0.0 
0.148611 -0.0022294 0.0 
1.00706 0.00133643 0.0 
1.0063 -0.0451014 0.0 
0.138313 0.00383216 0.0 
1 0.000128269 0.0 
0.970304 0.0981274 0.0 
1.00495 -0.00231903 0.0 
0.525322 0.0346104 0.0 
0.99891 0.00446182 0.0 
1.00038 0.000696161 0.0 
0.705963 -0.00508992 0.0 
1.0017 -0.000493297 0.0 
0.844758 -0.0235549 0.0 
1.76383e-05 1.30368e-06 0.0 
1.00131 0.00537049 0.0 
1.00535 -0.000190839 0.0 
1.00461 -0.00269096 0.0 
0.271537 -0.0226476 0.0 
0.452805 -0.307189 0.0 
0.999636 -4.94859e-05 0.0 
0.85625 0.0117846 0.0 
0.999903 0.00151443 0.0 
1.57196e-131 1.97683e-132 0.0 
0.999793 0.000416205 0.0 
0.999578 0.000280693 0.0 
0.962471 -0.056486 0.0 
0.99488 -0.0164081 0.0 
0.284714 -0.0411266 0.0 
1 -0.000939445 0.0 
1.0017 0.000155751 0.0 
0.942524 -0.0378467 0.0 
0.999987 0.000521158 0.0 
1 0.000231499 0.0 
0.99905 -0.00204729 0.0 
1.00239 -0.00321291 0.0 
0.956115 0.0283143 0.0 
1.00108 0.00323803 0.0 
1.00695 -0.00161682 0.0 
1.0061 0.000985315 0.0 
0.532502 0.00234972 0.0 
1.00687 0.00116089 0.0 
0.999145 -4.44941e-06 0.0 
-4.19617e-95 -1.25562e-95 0.0 
0.0583978 0.0203978 0.0 
1.00936 -0.00425318 0.0 
0.00734821 -0.00127781 0.0 
0.609638 0.00324419 0.0 
1.00381 0.00226554 0.0 
1.00001 -0.000257442 0.0 
1.00115 0.0017014 0.0 
0.883269 0.241749 0.0 
0.862337 0.0314757 0.0 
1.01353 -0.00583182 0.0 
1.0074 0.00148048 0.0 
1.00865 -0.000183788 0.0 
1.0306 0.012955 0.0 
0.99054 -0.00342682 0.0 
0.961895 -0.0446248 0.0 
-2.94552e-166 3.10238e-168 0.0 
0.0852669 0.0040191 0.0 
1.00537 0.00227899 0.0 
0.403199 0.00511103 0.0 
0.813912 0.0142783 0.0 
0.432365 0.00793101 0.0 
0.22439 -0.00578774 0.0 
0.999538 0.000352859 0.0 
0.998512 -0.00274678 0.0 
1.0053 9.80835e-05 0.0 
0.999446 -0.000634316 0.0 
1.00509 -0.00036508 0.0 
0.999583 -4.08696e-05 0.0 
0.999697 -0.000700136 0.0 
0.182171 0.000313611 0.0 
1.0029 0.00277698 0.0 
1.0085 0.00199365 0.0 
1.00048 0.000626409 0.0 
0.999686 -0.000852667 0.0 
0.389772 0.00551834 0.0 
1.00114 -0.000403428 0.0 
0 0 0.0 
0.213303 0.00645997 0.0 
0.0543099 0.00106704 0.0 
1.08973e-05 -2.14316e-07 0.0 
0.999818 -0.000278957 0.0 
0.724044 -0.0308514 0.0 
0.894483 0.0142415 0.0 
0.0191894 -0.00225384 0.0 
1.00007 -0.00068333 0.0 
0.0309603 0.0010298 0.0 
1.00075 -0.000429957 0.0 
0.927578 -0.164028 0.0 
0.101271 -0.0164706 0.0 
0.816744 0.127101 0.0 
1.02119 0.000747239 0.0 
0.274731 0.00441609 0.0 
0.130243 -0.0176497 0.0 
0.418561 0.00209883 0.0 
0.0173609 0.00101627 0.0 
1.12589 0.0859077 0.0 
0.434758 -0.000876384 0.0 
1.00776 -0.00058663 0.0 
1.00128 -0.00654336 0.0 
1.00165 0.000226034 0.0 
1.00493 -0.00101659 0.0 
1.00086 0 0.0 
1.00407 -0.00240839 0.0 
1.00169 0.00169089 0.0 
1.0009 0.0168078 0.0 
0.0106811 0.000843349 0.0 
0.317209 0.043374 0.0 
0.999687 -0.000184775 0.0 
1.00588 -0.00178945 0.0 
0.0016435 -4.44526e-05 0.0 
1.0114 -0.00452989 0.0 
0.918477 -0.00439293 0.0 
0.334693 -0.00130938 0.0 
0.355052 -0.00187914 0.0 
1.00319 0.000813624 0.0 
0.0367153 -0.00709976 0.0 
1.00607 0.000882468 0.0 
0.788284 0.141354 0.0 
0.999401 -0.00148925 0.0 
1.00557 -0.000441654 0.0 
1.00457 0.001142 0.0 
0.815731 -0.0265789 0.0 
1.00661 0.00122701 0.0 
1.00007 -0.000220598 0.0 
0.347225 0.00107799 0.0 
1.00611 -0.00423954 0.0 
0.0607776 -0.00300788 0.0 
0.794882 -0.00124762 0.0 
0.999833 -0.000280212 0.0 
0.997704 0.00434351 0.0 
1.00078 0.0012475 0.0 
1.00001 -0.000132103 0.0 
1.00364 0.00209862 0.0 
0.012154 -0.00199007 0.0 
0.999691 -6.89381e-05 0.0 
0.913647 -0.0159001 0.0 
1.00319 0.00216469 0.0 
1.00537 0.00177132 0.0 
0.999807 -5.72714e-05 0.0 
1.0403 -0.00249484 0.0 
0.973282 -0.00872274 0.0 
0.836432 -0.0516333 0.0 
1 -0.000251753 0.0 
0.322903 -0.234504 0.0 
0.390285 0.0869401 0.0 
0.179785 -0.0199355 0.0 
0.0371519 0.00152838 0.0 
1.00273 0.0101033 0.0 
0.999977 8.06409e-06 0.0 
1.00192 0.00076799 0.0 
0.835258 0.117782 0.0 
0.932334 0.00176845 0.0 
0.970016 0.0445915 0.0 
0.969912 -0.00865222 0.0 
0 0 0.0 
1.01187 0.00196033 0.0 
0.0119711 -0.000547575 0.0 
0.236766 0.00416841 0.0 
9.05864e-45 7.43184e-46 0.0 
0.0224548 0.00137394 0.0 
0.920492 -0.0251871 0.0 
0.999499 -5.04683e-05 0.0 
1.05567 0.0986975 0.0 
0.88618 -0.0548379 0.0 
0.0151921 -0.0278118 0.0 
1.00201 0.000606693 0.0 
1.07179 0.0778183 0.0 
0.999671 0.000814791 0.0 
0.407252 -0.0154515 0.0 
0.0515419 -0.00102371 0.0 
0.914579 -0.37293 0.0 
0.0429403 -0.00222677 0.0 
0.999338 -0.000254489 0.0 
0.141336 -0.0178863 0.0 
1.10699 0.0982473 0.0 
0.014149 -0.00036928 0.0 
1.00011 0.00143728 0.0 
1 0 0.0 
1 3.76803e-05 0.0 
0.239704 -0.0248642 0.0 
0.892482 -0.0516573 0.0 
1.00058 -0.000458266 0.0 
0.999767 0.00184687 0.0 
0.97059 -0.0277498 0.0 
1.0014 9.99681e-05 0.0 
0.999796 -0.000800172 0.0 
1.00516 0 0.0 
0.883992 -0.0205443 0.0 
1.00628 0.00160587 0.0 
1.00341 0.00406769 0.0 
1.00038 0.000876187 0.0 
0.999719 0.0050324 0.0 
0.997545 0.0123086 0.0 
1.11718 0.043953 0.0 
0.417784 0.0275501 0.0 
1.00078 0 0.0 
7.95716e-05 -9.91521e-06 0.0 
0.167688 0.0509457 0.0 
0 0 0.0 
1.00447 -0.00383049 0.0 
0.756705 0.0120495 0.0 
0.645264 -0.0271218 0.0 
0.0732596 -0.0289754 0.0 
0.0240811 0.000409159 0.0 
1.01208 -0.0136432 0.0 
0.99958 0.000416801 0.0 