<VTKFile type="UnstructuredGrid" version="0.1" byte_order="LittleEndian">
  <UnstructuredGrid>
    <Piece NumberOfPoints="14033" NumberOfCells="27877">
      <Points>
        <DataArray type = "Float64" NumberOfComponents="3" format="ascii">
0 0 0.0 
14 0 0.0 
14 8 0.0 
0 8 0.0 
4.0946 4.02437 0.0 
4.0462 3.99511 0.0 
4.15179 4.02442 0.0 
4.17635 4.02276 0.0 
3.98227 4.03242 0.0 
0.443017 2.69308 0.0 
4.49259 4.00951 0.0 
0.380433 2.91022 0.0 
4.1643 4.04694 0.0 
4.41534 4.03416 0.0 
4.07057 3.9639 0.0 
4.53824 7.43039 0.0 
1.86633 0 0.0 
3.98741 4.04054 0.0 
3.98768 4.02653 0.0 
4.34188 3.99097 0.0 
4.11187 4.00352 0.0 
3.99603 4.04719 0.0 
0.151059 5.05835 0.0 
4.0534 3.9855 0.0 
4.13177 4.05943 0.0 
4.67405 4.10923 0.0 
4.40671 3.99369 0.0 
4.80484 4.03022 0.0 
4.61584 4.00791 0.0 
4.08822 3.98535 0.0 
12.1265 0 0.0 
4.80652 4.07823 0.0 
13.4888 8 0.0 
4.4328 4.04616 0.0 
4.90606 4.07302 0.0 
1.05508 0.443492 0.0 
4.13489 4.05432 0.0 
4.31626 3.99014 0.0 
4.41206 4.03579 0.0 
3.99575 4.053 0.0 
4.50422 4.01048 0.0 
4.48435 4.03561 0.0 
0 3.36284 0.0 
4.59998 3.94494 0.0 
8.94307 3.82141 0.0 
4.56206 1.73437 0.0 
4.53334 4.00314 0.0 
4.04646 3.98021 0.0 
4.0273 4.01367 0.0 
4.20672 3.96235 0.0 
4.36248 3.97044 0.0 
4.52156 4.00893 0.0 
6.64198 4.06356 0.0 
4.57201 3.9536 0.0 
4.74743 4.02616 0.0 
4.30802 4.03934 0.0 
4.62327 4.01423 0.0 
4.12607 4.05951 0.0 
1.8052 6.2699 0.0 
4.2483 4.03635 0.0 
4.16037 3.98541 0.0 
4.0955 3.94899 0.0 
4.03444 4.04627 0.0 
4.40859 3.9965 0.0 
4.00163 4.02959 0.0 
4.02005 3.99731 0.0 
5.23503 8 0.0 
12.1753 3.5088 0.0 
4.01031 3.94339 0.0 
4.25 4.04374 0.0 
4.524 3.99702 0.0 
4.07781 4.01365 0.0 
4.3128 4.02997 0.0 
3.9222 3.93728 0.0 
4.07784 3.9922 0.0 
4.95291 3.93147 0.0 
4.80306 3.99779 0.0 
4.5397 3.99985 0.0 
5.1201 4.07987 0.0 
4.30258 3.97959 0.0 
4.15959 3.98088 0.0 
4.02545 4.02229 0.0 
9.16151 6.19849 0.0 
4.04672 4.0202 0.0 
4.42806 4.00998 0.0 
3.95176 3.95619 0.0 
4.54772 3.97659 0.0 
3.96947 4.02134 0.0 
4.26485 3.98945 0.0 
4.27183 4.05112 0.0 
4.09731 3.96439 0.0 
3.96297 3.96024 0.0 
4.94331 3.90114 0.0 
4.15932 4.03394 0.0 
6.74704 7.50701 0.0 
4.11692 3.94964 0.0 
4.01411 4.01149 0.0 
3.95785 3.95439 0.0 
4.22767 3.98843 0.0 
4.02972 4.04518 0.0 
4.01942 4.0195 0.0 
4.21131 3.97058 0.0 
4.30377 3.98175 0.0 
3.97141 4.03046 0.0 
4.51635 4.00937 0.0 
3.97561 4.03322 0.0 
4.46833 4.03717 0.0 
3.97816 4.02179 0.0 
4.04633 4.03304 0.0 
3.96767 4.02507 0.0 
4.53971 3.97638 0.0 
4.28054 4.04421 0.0 
4.50622 4.01099 0.0 
4.54225 3.97864 0.0 
4.31234 4.02555 0.0 
4.06525 4.00012 0.0 
4.26828 4.04341 0.0 
4.54991 3.98013 0.0 
7.39132 0.561385 0.0 
4.22805 5.10181 0.0 
4.15929 4.04221 0.0 
4.23468 3.97496 0.0 
4.73521 7.52615 0.0 
0 5.29806 0.0 
4.01937 3.98978 0.0 
3.95909 4.14135 0.0 
0.382884 7.40906 0.0 
4.21259 3.97823 0.0 
4.21866 3.97499 0.0 
4.06171 3.97809 0.0 
5.2489 4.02878 0.0 
4.11581 4.05249 0.0 
10.4118 5.08662 0.0 
4.45806 4.02216 0.0 
8.79181 7.69132 0.0 
4.20485 3.96887 0.0 
4.81648 4.13568 0.0 
4.23843 3.97477 0.0 
4.10117 3.96057 0.0 
5.17626 4.11911 0.0 
4.83278 4.09824 0.0 
4.46832 4.03304 0.0 
4.42013 4.01392 0.0 
6.37297 2.73989 0.0 
6.50541 6.65271 0.0 
4.0914 3.96216 0.0 
4.2177 4.0171 0.0 
3.97586 4.01385 0.0 
0 2.36699 0.0 
4.45501 4.02224 0.0 
4.01084 3.97813 0.0 
12.6474 3.41509 0.0 
4.05312 3.99197 0.0 
13.7435 8 0.0 
4.11702 4.02719 0.0 
4.47142 4.03458 0.0 
6.67367 0 0.0 
4.16905 4.01587 0.0 
4.39167 3.97801 0.0 
4.95548 3.99923 0.0 
13.4653 0.705634 0.0 
4.32957 4.02421 0.0 
4.47259 4.0371 0.0 
4.52682 3.98206 0.0 
4.03874 3.11132 0.0 
1.36116 1.78512 0.0 
5.25615 4.08216 0.0 
4.14275 4.01366 0.0 
4.38883 3.97696 0.0 
3.04298 2.00142 0.0 
6.22735 7.50315 0.0 
5.75234 3.89485 0.0 
4.42841 4.03698 0.0 
6.04319 7.63644 0.0 
4.00932 4.01975 0.0 
0.899833 3.25575 0.0 
8.95603 7.57132 0.0 
4.30003 3.9751 0.0 
4.01787 3.95968 0.0 
3.98122 4.01031 0.0 
11.5703 4.18823 0.0 
4.39904 4.0114 0.0 
4.06966 3.97575 0.0 
4.178 4.03035 0.0 
4.17114 4.04931 0.0 
4.18273 3.98761 0.0 
11.3934 4.07618 0.0 
2.80787 3.83762 0.0 
5.9949 3.78775 0.0 
4.54778 4.01674 0.0 
4.08927 3.9549 0.0 
5.20003 3.79574 0.0 
4.02874 4.02049 0.0 
3.63104 3.86736 0.0 
4.47536 4.04506 0.0 
4.38564 3.98145 0.0 
4.09428 3.96323 0.0 
3.75779 4.33901 0.0 
4.53154 4.01075 0.0 
4.06761 3.97376 0.0 
4.01876 4.02234 0.0 
4.82489 3.98886 0.0 
9.58277 3.65337 0.0 
5.08783 3.97242 0.0 
10.358 3.36045 0.0 
12.0372 1.49526 0.0 
4.27125 4.04375 0.0 
4.2213 4.09576 0.0 
10.4619 3.53679 0.0 
4.39789 4.02787 0.0 
4.06261 4.0669 0.0 
5.11499 3.91409 0.0 
0 1.32712 0.0 
4.29897 4.01461 0.0 
6.38052 3.13775 0.0 
5.9291 5.15993 0.0 
4.25466 4.04416 0.0 
5.18249 3.99994 0.0 
9.4176 1.73395 0.0 
4.0005 3.94996 0.0 
4.32944 5.60672 0.0 
4.18452 4.02885 0.0 
5.00054 4.00829 0.0 
4.20552 3.97966 0.0 
5.18849 4.16425 0.0 
8.35832 2.9685 0.0 
13.4699 7.45697 0.0 
5.20117 3.96378 0.0 
4.66557 4.00143 0.0 
4.01229 3.97705 0.0 
4.06076 3.97364 0.0 
6.95116 0 0.0 
4.00535 3.95189 0.0 
4.09808 4.03387 0.0 
14 7.50883 0.0 
13.7283 2.46074 0.0 
3.99424 4.06422 0.0 
4.04319 4.33383 0.0 
4.00577 3.97873 0.0 
4.46517 4.03956 0.0 
4.27631 3.98498 0.0 
5.04254 4.02915 0.0 
4.48835 4.01521 0.0 
7.62224 2.88267 0.0 
7.22419 0.703495 0.0 
4.42717 4.02972 0.0 
4.19337 3.98733 0.0 
4.18471 3.97029 0.0 
4.23239 4.07453 0.0 
4.35323 4.0355 0.0 
4.09287 4.58491 0.0 
5.8599 3.0813 0.0 
4.40261 4.02904 0.0 
4.5209 3.97938 0.0 
4.24099 3.98922 0.0 
4.39357 4.01426 0.0 
12.282 6.14857 0.0 
5.28208 3.91665 0.0 
6.6627 2.29498 0.0 
4.6103 3.91602 0.0 
4.50427 4.02384 0.0 
0 1.05572 0.0 
5.14542 4.10401 0.0 
4.22561 4.06554 0.0 
4.11575 4.03408 0.0 
4.18931 3.98034 0.0 
4.20274 4.07949 0.0 
4.14166 3.99554 0.0 
12.5015 1.14918 0.0 
4.09797 3.95385 0.0 
4.23052 4.09368 0.0 
4.20868 4.08388 0.0 
4.00011 4.0245 0.0 
4.18262 3.97536 0.0 
4.52176 4.01314 0.0 
4.42826 4.4794 0.0 
4.45312 4.02373 0.0 
4.01369 3.97538 0.0 
4.05765 3.99793 0.0 
4.54906 4.0373 0.0 
3.99076 4.07214 0.0 
4.50202 4.01651 0.0 
4.2348 3.98836 0.0 
0.255049 4.91366 0.0 
8.82235 8 0.0 
4.4704 4.03985 0.0 
4.41562 3.99574 0.0 
14 0.782546 0.0 
4.2355 4.09935 0.0 
4.18824 4.05414 0.0 
0.21871 6.38506 0.0 
13.6419 7.13933 0.0 
4.34438 4.01202 0.0 
4.52805 3.99947 0.0 
5.45483 4.00776 0.0 
4.69185 4.0155 0.0 
4.07184 4.14083 0.0 
4.39173 4.05753 0.0 
4.18122 3.97184 0.0 
4.11053 3.9507 0.0 
0.417479 6.31883 0.0 
4.1403 4.03691 0.0 
5.96653 3.88159 0.0 
5.29783 4.33019 0.0 
8.08519 4.98963 0.0 
4.4851 4.00696 0.0 
4.55292 4.0006 0.0 
4.3572 4.00882 0.0 
4.06478 4.00807 0.0 
4.57553 4.01147 0.0 
3.99155 4.04247 0.0 
3.99093 4.05263 0.0 
3.98858 4.04648 0.0 
3.97296 4.00674 0.0 
11.3714 7.19716 0.0 
9.192 5.81999 0.0 
5.51927 4.14829 0.0 
3.53429 0 0.0 
4.50595 4.0275 0.0 
4.67134 3.89044 0.0 
4.42778 4.01198 0.0 
11.016 2.69137 0.0 
2.30378 3.03595 0.0 
13.0308 3.29431 0.0 
4.06329 4.04721 0.0 
7.40997 8 0.0 
4.05629 4.04137 0.0 
2.86414 6.59491 0.0 
5.30324 4.05797 0.0 
4.06419 4.05585 0.0 
4.33756 4.03752 0.0 
4.08952 4.02996 0.0 
4.02321 3.97317 0.0 
6.78993 2.13526 0.0 
6.95076 5.01827 0.0 
0.846754 0.565038 0.0 
4.35486 3.98331 0.0 
4.02022 3.98428 0.0 
4.78127 3.89524 0.0 
1.2142 8 0.0 
7.59973 7.22298 0.0 
12.6277 1.80732 0.0 
14 4.58149 0.0 
5.85073 0.410811 0.0 
13.0902 7.46595 0.0 
4.35932 4.01216 0.0 
4.02912 3.96643 0.0 
3.9878 3.95947 0.0 
4.5031 4.02642 0.0 
4.00485 3.95979 0.0 
4.51303 3.98607 0.0 
4.42015 4.03142 0.0 
3.96066 4.00697 0.0 
12.8262 0.365959 0.0 
4.37852 4.0333 0.0 
4.41496 3.97812 0.0 
13.1661 5.68046 0.0 
13.7895 0 0.0 
4.10795 4.02897 0.0 
4.29674 4.0435 0.0 
11.4357 2.10385 0.0 
4.3136 3.99337 0.0 
4.46023 3.99779 0.0 
4.00791 4.0033 0.0 
4.0088 3.9805 0.0 
9.75515 2.36072 0.0 
4.62286 3.98053 0.0 
3.85193 3.15889 0.0 
4.02947 3.97325 0.0 
4.00498 4.00961 0.0 
4.6454 3.91884 0.0 
6.95962 7.64891 0.0 
4.05954 4.04241 0.0 
4.01129 4.00596 0.0 
4.38809 4.01643 0.0 
3.41908 3.92419 0.0 
4.51074 4.03034 0.0 
5.23345 3.94715 0.0 
4.01755 3.97046 0.0 
4.12513 4.00394 0.0 
6.70909 6.94059 0.0 
4.03497 4.0243 0.0 
5.52808 3.66352 0.0 
4.40677 3.99462 0.0 
4.01703 7.79668 0.0 
4.51673 4.02897 0.0 
4.05373 4.0206 0.0 
4.0593 4.0207 0.0 
4.04972 4.10937 0.0 
4.57278 4.01594 0.0 
4.40093 3.98016 0.0 
4.15516 3.94365 0.0 
4.21078 3.98014 0.0 
4.01683 3.96357 0.0 
8.32777 8 0.0 
4.19264 4.05366 0.0 
4.05396 4.05232 0.0 
4.38681 4.01479 0.0 
4.39641 3.97994 0.0 
4.32637 4.10272 0.0 
4.67388 4.01447 0.0 
4.30809 4.03833 0.0 
4.00437 3.9841 0.0 
4.18904 4.08839 0.0 
4.0134 3.97877 0.0 
3.03193 6.72582 0.0 
5.35511 4.08996 0.0 
4.01079 3.9893 0.0 
4.03237 3.93948 0.0 
4.36156 4.08272 0.0 
5.23265 4.1063 0.0 
4.9657 3.98377 0.0 
4.35027 4.01257 0.0 
4.61831 3.97447 0.0 
4.00156 4.0058 0.0 
2.5098 3.59854 0.0 
4.21036 4.03335 0.0 
4.44756 3.99809 0.0 
4.21732 4.03352 0.0 
4.53888 4.02662 0.0 
11.5792 7.84461 0.0 
0.551344 1.2516 0.0 
4.52441 4.04137 0.0 
4.02575 3.96118 0.0 
5.45652 5.2281 0.0 
4.11887 3.97582 0.0 
4.01147 3.88231 0.0 
4.21235 4.04432 0.0 
4.27527 3.98821 0.0 
4.39845 4.018 0.0 
10.4908 7.41058 0.0 
4.88268 3.97989 0.0 
7.97633 2.05223 0.0 
11.8351 6.74811 0.0 
4.38989 3.99454 0.0 
4.1127 3.96242 0.0 
4.00239 3.93806 0.0 
4.97574 3.92081 0.0 
4.15116 3.93854 0.0 
4.13176 4.07898 0.0 
10.2186 2.28825 0.0 
3.97414 4.04859 0.0 
4.35859 3.99561 0.0 
3.28001 4.42362 0.0 
4.29599 4.04113 0.0 
4.00279 3.99128 0.0 
4.05385 4.00986 0.0 
4.85809 4.01513 0.0 
4.2017 4.0498 0.0 
4.66615 4.02354 0.0 
6.32476 7.00417 0.0 
12.5996 5.63737 0.0 
4.66222 4.02916 0.0 
4.19855 4.03407 0.0 
4.58368 4.50082 0.0 
4.3206 4.03942 0.0 
4.98663 3.97562 0.0 
2.61514 0.506135 0.0 
4.20862 3.97868 0.0 
11.5808 3.97719 0.0 
3.59942 3.72495 0.0 
4.53761 3.98773 0.0 
4.14091 4.04918 0.0 
3.96806 4.01296 0.0 
11.0968 5.75296 0.0 
6.49741 5.21617 0.0 
8.40952 2.0809 0.0 
4.42569 3.97225 0.0 
4.99481 3.92963 0.0 
4.25682 3.99079 0.0 
4.5467 4.03146 0.0 
4.35942 3.98947 0.0 
7.58471 5.24477 0.0 
4.95403 3.97261 0.0 
7.20657 5.05296 0.0 
3.05391 4.40989 0.0 
[...]
<PointData>
  <DataArray type = "Float64" Name="Vitesse" NumberOfComponents="3" format="ascii">
1 0 0.0 
1.00013 0 0.0 
0.999913 0 0.0 
1 0 0.0 
0 0 0.0 
-1.54911e-171 3.75855e-174 0.0 
0 0 0.0 
0 0 0.0 
0.735258 0.163896 0.0 
0.999973 -0.000174738 0.0 
-1.11322e-87 1.7639e-88 0.0 
0.99997 -0.000119635 0.0 
0.144955 0.00726846 0.0 
0.0781972 -0.00895387 0.0 
0.876047 -0.0944217 0.0 
1.00434 0.000232462 0.0 
1.00064 0 0.0 
0.776233 0.197597 0.0 
0.684436 0.189577 0.0 
0.050122 0.00456035 0.0 
0 0 0.0 
0.816998 0.23207 0.0 
0.999998 0.000128882 0.0 
0.044739 0.000601144 0.0 
0.735595 0.0932549 0.0 
0.969142 -0.0491997 0.0 
0.0390679 0.00187493 0.0 
0.390493 -0.0186024 0.0 
0.121587 -0.00182112 0.0 
0.00425064 8.01442e-06 0.0 
1.00027 0 0.0 
0.790883 -0.0384864 0.0 
0.999914 0 0.0 
0.253215 -0.0236739 0.0 
0.767822 -0.0309729 0.0 
1.00019 -0.0001656 0.0 
0.543886 0.0604053 0.0 
0.050303 0.00191937 0.0 
0.0932088 -0.0104963 0.0 
0.83961 0.220869 0.0 
1.67742e-45 -2.57212e-46 0.0 
0.167263 -0.0192625 0.0 
1 0 0.0 
0.745651 0.0335812 0.0 
0.998488 0.00101308 0.0 
1.00513 -0.00180199 0.0 
-5.91337e-91 9.27321e-93 0.0 
0.370322 -0.0360217 0.0 
0 0 0.0 
0.581884 -0.000689117 0.0 
0.392716 0.00824934 0.0 
5.90876e-05 -6.9136e-06 0.0 
0.912684 -0.0126314 0.0 
0.654957 0.0295968 0.0 
0.321145 -0.017093 0.0 
0.0116065 -0.000109071 0.0 
0.137295 -0.0102988 0.0 
0.767307 0.105507 0.0 
1.00065 0.00171929 0.0 
-1.54289e-209 8.90681e-211 0.0 
0.0538653 0.00333151 0.0 
1.03449 -0.0961533 0.0 
0.92805 0.316533 0.0 
0.000854712 4.06944e-05 0.0 
0.722304 0.309373 0.0 
0 0 0.0 
1.00409 0 0.0 
0.999945 0.000178071 0.0 
0.984065 -0.207914 0.0 
0.0253351 -0.00260429 0.0 
0.033706 0.000878829 0.0 
0 0 0.0 
0 0 0.0 
0.909379 -0.0747368 0.0 
6.15042e-132 -6.28173e-134 0.0 
0.834205 0.0193296 0.0 
0.335928 0.00657108 0.0 
0.000309802 2.1694e-05 0.0 
0.832316 -0.0233855 0.0 
0.225357 0.00590607 0.0 
0.161094 0.00430306 0.0 
0.215839 0.0968796 0.0 
0.999886 -0.000664552 0.0 
0 0 0.0 
0 0 0.0 
0.872953 -0.111228 0.0 
0.352612 0.0153732 0.0 
0.727065 0.0677151 0.0 
0.0339639 0.000302557 0.0 
0.214177 -0.00789806 0.0 
0.738756 -0.0445943 0.0 
0.860786 -0.137332 0.0 
0.956435 0.0178573 0.0 
0 0 0.0 
1.00263 -0.000635543 0.0 
0.982965 -0.0665669 0.0 
0 0 0.0 
0.875435 -0.124783 0.0 
0.0298798 0.00140875 0.0 
0.915681 0.324218 0.0 
0.208859 0.101678 0.0 
0.397726 0.0046101 0.0 
0.187415 0.0053176 0.0 
0.752036 0.107296 0.0 
7.9068e-06 -7.39183e-07 0.0 
0.752712 0.131609 0.0 
0.169421 -0.0192618 0.0 
0.688062 0.105267 0.0 
0.437239 0.135448 0.0 
0.745569 0.0771692 0.0 
0.35094 0.0128158 0.0 
0.0691669 -0.00422666 0.0 
2.48035e-07 -4.27525e-08 0.0 
0.320106 0.0122445 0.0 
0 0 0.0 
-1.78977e-232 -4.60985e-234 0.0 
0.0400969 -0.00199294 0.0 
0.303612 0.0142895 0.0 
1.00283 0.000562316 0.0 
1.0134 0.00769198 0.0 
5.15423e-06 -1.23214e-07 0.0 
0.301596 0.00577582 0.0 
1.00433 7.82159e-05 0.0 
1 0 0.0 
0.000102516 -2.19369e-05 0.0 
0.951113 0.103713 0.0 
1.00003 0.000120944 0.0 
0.229714 0.00515866 0.0 
0.300051 0.00510833 0.0 
0.376989 -0.0302562 0.0 
0.595458 -0.0094936 0.0 
0.587776 0.0848122 0.0 
0.999596 -3.25821e-05 0.0 
0.0147753 -0.00294458 0.0 
1.0006 -0.000179663 0.0 
0.438749 0.00359113 0.0 
1.00786 -0.0358157 0.0 
0.305559 0.00591856 0.0 
0.827573 -0.0540753 0.0 
0.967368 -0.0216039 0.0 
0.910866 -0.0376054 0.0 
0.123081 -0.0151479 0.0 
0 0 0.0 
1.00613 0.0041295 0.0 
1.00301 -0.00198522 0.0 
0.825183 -0.0620386 0.0 
0 0 0.0 
0.666855 0.0457715 0.0 
1 0 0.0 
0.0115783 -0.00218043 0.0 
0.916295 -0.350615 0.0 
0.999976 0.000139343 0.0 
8.54624e-296 -1.29126e-296 0.0 
0.999913 0 0.0 
0 0 0.0 
0.142911 -0.0170052 0.0 
1.00346 0 0.0 
0 0 0.0 
0.275517 0.00750783 0.0 
0.428585 0.00301675 0.0 
1.00014 3.61948e-05 0.0 
1.54603e-302 -4.85258e-304 0.0 
0.172823 -0.0196111 0.0 
0.26123 0.00773844 0.0 
1.00783 -0.0126314 0.0 
1.00011 -0.000752729 0.0 
0.85382 -0.0215376 0.0 
0 0 0.0 
0.291786 0.00761765 0.0 
1.00141 -0.00319859 0.0 
1.00332 -0.000596578 0.0 
0.937665 0.00652725 0.0 
0.125659 -0.0142954 0.0 
1.00351 -0.000404686 0.0 
0.531775 0.306224 0.0 
0.999777 -0.000164455 0.0 
1.00049 -0.000229129 0.0 
0.30536 0.00684719 0.0 
1.01101 -0.263766 0.0 
0.606335 0.0337979 0.0 
0.999828 0.000167427 0.0 
0 0 0.0 
0.445604 -0.0309254 0.0 
0 0 0.0 
0.215191 0.00960755 0.0 
0.0192371 0.00156811 0.0 
0.99981 0.000197956 0.0 
0.994046 -0.000163077 0.0 
1.00701 0.00457833 0.0 
0.0633013 -0.0124592 0.0 
0.981689 -0.0917347 0.0 
1.01091 0.00937047 0.0 
-3.95167e-213 -1.07957e-213 0.0 
0.972454 -0.0109482 0.0 
0.276055 -0.0272263 0.0 
0.219375 0.00626148 0.0 
0.784168 -0.0531809 0.0 
0.985335 0.032198 0.0 
0.0157037 -0.00296316 0.0 
0.542987 -0.0446092 0.0 
0.434697 0.206137 0.0 
0.392047 0.0120276 0.0 
0.999272 0.000756183 0.0 
0.592448 0.0103991 0.0 
0.999731 0.000541618 0.0 
1.00019 0.000176641 0.0 
0.0500693 -0.00189396 0.0 
1.09049 0.0645946 0.0 
0.999707 0.00046392 0.0 
-8.07233e-250 9.79709e-251 0.0 
1.03406 0.255484 0.0 
0.909687 0.0140129 0.0 
1 0 0.0 
0 0 0.0 
1.00749 0.00528504 0.0 
1.00565 -0.00779831 0.0 
0.0406817 -0.000120353 0.0 
0.52893 0.00106482 0.0 
1.00067 0.000957816 0.0 
0.949047 -0.219008 0.0 
1.00922 0.00322826 0.0 
0 0 0.0 
0.444703 -0.00174143 0.0 
0.198024 0.00555883 0.0 
1.00765 -0.0216786 0.0 
0.999721 0.00285491 0.0 
0.999913 -5.06859e-07 0.0 
0.661468 0.0112488 0.0 
0.20061 0.0071998 0.0 
0.930813 -0.339004 0.0 
0.589782 -0.0576037 0.0 
1.00322 0 0.0 
0.962907 -0.231532 0.0 
0 0 0.0 
0.999913 -7.40979e-07 0.0 
1.00006 7.30286e-05 0.0 
0.871237 0.199722 0.0 
1.02003 0.0583217 0.0 
0.896404 -0.385103 0.0 
0.195334 -0.0212023 0.0 
0.119386 0.00490771 0.0 
0.517684 -0.0123816 0.0 
0.000484261 -5.9981e-05 0.0 
1.00114 0.0044519 0.0 
1.00301 0.000703711 0.0 
0.0448053 -0.00649472 0.0 
0.0308947 0.00211962 0.0 
0.416169 0.002418 0.0 
0.812616 0.0260421 0.0 
0.0168677 -0.00108469 0.0 
1.0211 0.0266511 0.0 
1.00841 0.00388089 0.0 
0.00916283 -0.0016793 0.0 
0.297763 0.00870082 0.0 
0.0245424 0.00111212 0.0 
0 0 0.0 
0.999885 -6.94003e-07 0.0 
0.890061 0.0114075 0.0 
1.00455 0.00311807 0.0 
0.954709 0.0280538 0.0 
0.0735518 -0.0102724 0.0 
1 0 0.0 
0.930243 -0.0232064 0.0 
0.614531 0.0146495 0.0 
0 0 0.0 
0.180575 0.00371776 0.0 
0.956849 0.0614971 0.0 
-7.11892e-170 -2.35117e-171 0.0 
1.00018 0.000107951 0.0 
0.971729 -0.0806755 0.0 
1.06961 0.0546643 0.0 
1.00615 0.0625694 0.0 
0.662628 0.311066 0.0 
0.295069 0.0039358 0.0 
0.0193013 -0.00334038 0.0 
1.04036 0.00734726 0.0 
0.0212357 -0.00336243 0.0 
0.950694 -0.329056 0.0 
1.49939e-307 1e-307 0.0 
0.247179 -0.0316321 0.0 
0.885952 0.181745 0.0 
0.0209407 -0.00301194 0.0 
0.0358816 0.000684317 0.0 
0.999989 0.000205031 0.0 
1.00061 0 0.0 
0.203915 -0.0220756 0.0 
0.0130619 -0.000117639 0.0 
1.00012 2.69205e-05 0.0 
1.0969 0.0550211 0.0 
0.348249 0.0137535 0.0 
1.00001 0.000163047 0.0 
0.999913 1.40289e-07 0.0 
0 0 0.0 
0.000863305 1.81847e-05 0.0 
0.61539 -0.00160116 0.0 
0.222147 -0.0078724 0.0 
1.03635 0.146101 0.0 
0.405935 -0.0276392 0.0 
0.380509 0.00297195 0.0 
0.98384 -0.071198 0.0 
1.00003 0.000326933 0.0 
0 0 0.0 
0.953064 0.00342874 0.0 
1.01305 -0.0174573 0.0 
0.998355 -0.00191528 0.0 
-2.04166e-259 -1.1787e-260 0.0 
4.55387e-128 -7.15935e-129 0.0 
0 0 0.0 
0 0 0.0 
0.0601948 -0.0184777 0.0 
0.788677 0.217722 0.0 
0.831745 0.204151 0.0 
0.804763 0.200371 0.0 
0.676479 -0.0138043 0.0 
0.999932 -4.29583e-05 0.0 
0.999638 -0.000673876 0.0 
0.999277 -0.0180076 0.0 
1.0025 0 0.0 
0.106389 -0.0140421 0.0 
1.01259 0.0255205 0.0 
0 0 0.0 
1.00002 0.000419883 0.0 
0.998536 -0.00187835 0.0 
0.999996 0.000113277 0.0 
0.819103 0.210649 0.0 
1.00182 0 0.0 
0.694107 0.186015 0.0 
1.00233 0.00231804 0.0 
0.743258 -0.0164999 0.0 
0.979293 0.252672 0.0 
0.0212936 -0.001092 0.0 
4.85983e-299 6.0759e-300 0.0 
0.95034 -0.260231 0.0 
1.00411 0.00281821 0.0 
0.999376 -0.00586586 0.0 
1.00012 -0.000166297 0.0 
0.178479 0.00507303 0.0 
0.473654 -0.12162 0.0 
0.986341 0.0238554 0.0 
1.0004 0 0.0 
1.0015 -0.000846001 0.0 
1.00013 0.000137456 0.0 
0.999956 3.23635e-05 0.0 
1.00402 0.000138216 0.0 
0.999913 -1.50868e-06 0.0 
0 0 0.0 
1.02218 -0.246189 0.0 
0.887908 -0.217555 0.0 
0.0940171 -0.0126017 0.0 
0.951323 -0.263121 0.0 
0.19528 0.00539543 0.0 
0.0539831 -0.00682797 0.0 
0.748588 -0.012536 0.0 
1.00019 2.9805e-05 0.0 
0.0227871 -0.000918068 0.0 
0.280001 0.00699665 0.0 
0.999909 2.15667e-05 0.0 
1.00014 0 0.0 
0 0 0.0 
0.0719319 -0.00279217 0.0 
1.00015 0.000312152 0.0 
7.83359e-05 -3.52978e-06 0.0 
8.08813e-05 1.56987e-06 0.0 
0 0 0.0 
0.878644 -0.367125 0.0 
1.00019 0.000943976 0.0 
0.326494 0.0295975 0.0 
1.00401 -0.0137196 0.0 
0.899728 -0.21036 0.0 
0.070098 0.05887 0.0 
0.932464 0.030449 0.0 
1.00236 -0.000437767 0.0 
0.694366 0.17971 0.0 
0 0 0.0 
0 0 0.0 
0.982172 -0.00135631 0.0 
0.137775 -0.0174238 0.0 
0.754648 0.0120301 0.0 
0.995251 -0.303022 0.0 
0 0 0.0 
1.00265 -0.00146204 0.0 
0.0925066 0.0326501 0.0 
1.00929 0.00592283 0.0 
0.0255758 0.00135712 0.0 
1.0038 0.000192371 0.0 
0.130419 -0.0169508 0.0 
0 0 0.0 
0 0 0.0 
1.01215 0.183588 0.0 
0.0770184 -0.0244748 0.0 
0.243855 0.00693003 0.0 
0.981055 -0.0455925 0.0 
0.188905 0.00492503 0.0 
1.00713 -0.281482 0.0 
1.00094 0 0.0 
0.322383 0.0104458 0.0 
0.963944 0.272647 0.0 
0 0 0.0 
0.246142 0.007094 0.0 
1.05273 0.00260909 0.0 
0.200031 -0.00706433 0.0 
0.00188858 8.24044e-06 0.0 
0.80575 -0.413131 0.0 
1.07551 0.0895751 0.0 
0.892361 -0.318866 0.0 
1.00265 0.00211651 0.0 
0.890607 -0.0186171 0.0 
0.312348 -0.112264 0.0 
1.03749 -0.189908 0.0 
0.830705 -0.0229085 0.0 
0.936918 -0.0222861 0.0 
0.490818 0.0111113 0.0 
0 0 0.0 
0.397802 0.0329283 0.0 
0.0365931 0.0462582 0.0 
0.996515 -0.00100516 0.0 
0 0 0.0 
2.6802e-07 2.21196e-08 0.0 
0 0 0.0 
0.129821 -0.0187929 0.0 
0.999943 -7.42368e-06 0.0 
1.00003 -0.000215816 0.0 
0.273151 -0.0296949 0.0 
1.03765 -0.253894 0.0 
1.00913 -0.00638048 0.0 
0.315502 -0.00122863 0.0 
0.998653 -0.115178 0.0 
0.000508399 -3.67989e-05 0.0 
0.0617244 0.00341251 0.0 
0 0 0.0 
1.00002 -8.61883e-05 0.0 
0.47785 0.0149648 0.0 
1.00164 0.00232284 0.0 
0.9999 -2.71933e-05 0.0 
0.017761 0.00189736 0.0 
0.741145 -0.0353256 0.0 
0.9669 -0.189693 0.0 
0.88551 0.0186653 0.0 
1.0307 -0.0549294 0.0 
1.07486 0.153708 0.0 
1.00018 0.000691176 0.0 
0.813496 0.14531 0.0 
2.89701e-42 3.42587e-43 0.0 
0.992175 0.00988834 0.0 
0.0255664 0.000147268 0.0 
0.500282 -0.351336 0.0 
0 0 0.0 
0.365486 -0.00636088 0.0 
0.183375 0.0050761 0.0 
0.227379 -0.0177607 0.0 
1.0033 -0.00132624 0.0 
0.99989 2.38327e-05 0.0 
0.261176 -0.0240373 0.0 
0 0 0.0 
1.03489 -0.0041153 0.0 
0.0266613 -0.00288767 0.0 
0.54338 0.0129299 0.0 
1.00129 -0.000566886 0.0 
0.219439 0.00546566 0.0 
0.999845 0.000194338 0.0 
0.982207 -0.0148634 0.0 
0.18322 0.00523219 0.0 
0.308229 0.028161 0.0 
0.714876 0.0222217 0.0 
0.999799 -5.05913e-05 0.0 
1.00174 -0.00683933 0.0 
1.00109 0.00195928 0.0 
0.373742 0.00851083 0.0 
0.84291 0.0186193 0.0 
0.00135402 3.45245e-05 0.0 
0.18306 -0.0258408 0.0 
0.0826102 0.0028729 0.0 
0.999014 -0.00322766 0.0 
0.553044 0.0148522 0.0 
0.998899 -0.00472353 0.0 
0.993958 0.00643211 0.0 
0.998606 0.00034772 0.0 
0.138036 0.0330501 0.0 
1.00421 0.00761146 0.0 
-1.41191e-84 1.43013e-85 0.0 
0.154768 -0.0246228 0.0 
0.927967 -0.147217 0.0 
0.999992 3.44029e-05 0.0 
1.0038 -0.000130454 0.0 
0.333446 0.00792229 0.0 
0 0 0.0 
0.083483 -0.00252418 0.0 
0.294473 -0.0323081 0.0 
1.00404 -2.43409e-05 0.0 
0.68825 -0.013426 0.0 
0.811216 0.109727 0.0 
0.36041 -0.148821 0.0 
0.964352 -0.325485 0.0 
1.00479 -0.00235501 0.0 
0.707816 -0.0455878 0.0 
7.13686e-307 1e-307 0.0 
0.00680807 -0.00123338 0.0 
0.0193817 -0.00401897 0.0 
0.997626 0.0255344 0.0 
-1.40434e-226 -3.61711e-228 0.0 
0.956968 -0.0378077 0.0 
1.05753 0.0581667 0.0 
0 0 0.0 
0.0140185 0.00184039 0.0 
1.00001 -0.000156643 0.0 
0.433227 -0.0597078 0.0 
0.730945 -0.0219533 0.0 
0.469618 0.0103728 0.0 
0.279926 -0.172976 0.0 
1.00243 0 0.0 
1.00345 -0.00267428 0.0 
0 0 0.0 
1.00863 -0.0108407 0.0 
1.01771 0.0227413 0.0 
0.999953 -1.00771e-05 0.0 
0.893993 0.19905 0.0 
1.00057 0.00139875 0.0 
0.997992 -0.00153227 0.0 
1.00013 2.48853e-05 0.0 
0.396923 0.0188001 0.0 
0.444913 -0.00864006 0.0 
0 0 0.0 
1.03554 0.215674 0.0 
0.797813 0.127075 0.0 
1.00233 0.00542811 0.0 
0.786727 0.343057 0.0 
0.977956 0.0154039 0.0 
0.422654 0.00619727 0.0 
0.197236 -0.0255171 0.0 
0.705862 0.0177671 0.0 
0.194005 0.0142248 0.0 
0.0893672 -0.00871698 0.0 
0.999901 -0.0174893 0.0 
1.0008 0.00209222 0.0 
0 0 0.0 
0.176333 -0.0428447 0.0 
1.01792 0.000906889 0.0 
0 0 0.0 
0.999933 0.000698338 0.0 
1.00306 0.000144059 0.0 
1.00225 -0.00146894 0.0 
0.0317472 -0.0020911 0.0 
0.999944 -5.01576e-05 0.0 
1.00142 0.00184596 0.0 
1.02722 -0.0122873 0.0 
1.02512 0.238073 0.0 
0.00173483 -0.000304811 0.0 
1.00025 0.00210268 0.0 
1.00856 0.00530929 0.0 
0.999447 0.00104927 0.0 
1.00314 0.000274329 0.0 
1.00093 0.0018258 0.0 
0.999978 -0.000554116 0.0 
1.00395 -0.000886813 0.0 
0 0 0.0 
1.00233 0.00190031 0.0 
0.0649361 -0.00552171 0.0 
0.99963 0.00119724 0.0 
0.905234 -0.0168432 0.0 
0.837999 -0.0252646 0.0 
0.253555 -0.172721 0.0 
0.0164701 0.000749637 0.0 
0.0204344 -0.00493829 0.0 
0.804836 0.319279 0.0 
-4.98026e-187 -6.9133e-187 0.0 
0.999375 -0.0271503 0.0 
0.999913 7.27709e-07 0.0 
1.00007 -0.00143315 0.0 
1.00333 -0.00109967 0.0 
0 0 0.0 
0.00891678 -0.00157958 0.0 
0.253646 -0.0502782 0.0 
0.901175 -0.0094189 0.0 
0 0 0.0 
0.999921 9.7884e-06 0.0 
0 0 0.0 
1.00237 0.00632407 0.0 
1.00472 0.000176322 0.0 
1.03702 -0.0596778 0.0 
1.00011 0.000783758 0.0 
0.338735 0.00833014 0.0 
0.348508 0.0235329 0.0 
0.199445 0.00545974 0.0 
0.711867 -0.000123109 0.0 
1.00058 0.000403673 0.0 
0.956501 0.0297922 0.0 
0.0864559 0.00361546 0.0 
1.00091 -0.00413989 0.0 
1.00055 -0.000786869 0.0 
0.963031 -0.284143 0.0 
0 0 0.0 
0.468304 -0.00245406 0.0 
0.925497 -0.305912 0.0 
0.997438 -0.000623876 0.0 
0.999387 0.000758113 0.0 
1.00482 -0.000696542 0.0 
0.204279 0.0056932 0.0 
1.00001 -0.000169669 0.0 
0.197632 -0.000905795 0.0 
0.998104 0.0230212 0.0 
0.999821 0.000550969 0.0 
0.999726 0.000876737 0.0 
0.0644818 0.000607548 0.0 
0.0297388 -0.000136013 0.0 
0.999956 9.19071e-05 0.0 
1.00023 0.000344554 0.0 
0.892833 -0.0817375 0.0 
0.394114 0.00123913 0.0 
1.00024 -0.000185014 0.0 
1.00956 0.00187741 0.0 
0.0313635 -0.00309762 0.0 
0.0818841 0.0462713 0.0 
0.277264 -0.32877 0.0 
4.57542e-131 1.24882e-131 0.0 
0.64698 0.0146421 0.0 
0.706613 0.0910265 0.0 
0.000656494 1.15019e-05 0.0 
1.0014 0.00515831 0.0 
0.99965 -7.13691e-05 0.0 
0.993385 0.0601024 0.0 
0.326263 -0.0263 0.0 
0.999914 -7.42472e-07 0.0 
0.435476 -0.0180347 0.0 
0.997925 -0.0140867 0.0 
1.02648 0.0108976 0.0 
1.00065 0.000819421 0.0 
3.73479e-05 -1.27844e-05 0.0 
1.00908 0.00515162 0.0 
1.00003 0.000296524 0.0 
1.00008 0.000661024 0.0 
1.01849 0.00751968 0.0 
1.00536 0.00134726 0.0 
1.00056 0.000420405 0.0 
1.00539 -3.70284e-05 0.0 
1.02009 0.0164216 0.0 
1.00957 -0.0185709 0.0 
1.00404 4.94631e-05 0.0 
0.99997 -2.66287e-05 0.0 
0.999214 0.00018507 0.0 
1.00001 -5.00223e-05 0.0 
1.00772 0.081166 0.0 
0 0 0.0 
0.404182 -0.0118656 0.0 
1.01147 0.222667 0.0 
0.0420317 -0.00561526 0.0 
1.00079 0.00256951 0.0 
1.00604 -0.000198629 0.0 
9.20737e-05 5.46975e-06 0.0 
0.98135 0.00529038 0.0 
0.52649 0.0161703 0.0 
0.99769 0.00651914 0.0 
1.00352 0.000215979 0.0 
0.338193 0.00517074 0.0 
0.899511 0.0758472 0.0 
0.997723 -0.00190168 0.0 
1.00035 6.95431e-05 0.0 
0.0353942 0.0012415 0.0 
5.15235e-132 -2.84799e-133 0.0 
0.23906 0.0240992 0.0 
0.162679 0.00491244 0.0 
0.153533 -0.0285002 0.0 
1 -1.53882e-261 0.0 
0.0281867 -0.000220193 0.0 
1.00076 -0.00344686 0.0 
0.272502 0.00719018 0.0 
1.00118 -0.00388377 0.0 
1.00356 0.000175276 0.0 
0 0 0.0 
0 0 0.0 
0.790599 -0.029369 0.0 
0.737363 -0.0264526 0.0 
0.208617 0.0181923 0.0 
0.962154 0.129233 0.0 
0.413007 0.0980774 0.0 
0.039942 -0.00674795 0.0 
0.867935 0.031637 0.0 
1.00538 0.00124651 0.0 
0.999408 1.46879e-05 0.0 
0.0317808 -0.017124 0.0 
1.00002 0.000107744 0.0 
1.00969 0.00806881 0.0 
1.00144 -0.000379519 0.0 
0.0473594 0.00311983 0.0 
0.736297 0.0181749 0.0 
0.0444451 0.00225121 0.0 
1.00732 -0.00388108 0.0 
0.999971 7.5366e-05 0.0 
0.626821 -0.0497301 0.0 
1.00391 0.00547584 0.0 
1.01305 -0.0486694 0.0 
0.192067 -0.0222609 0.0 
1.00516 0.00277864 0.0 
0.112488 0.0126321 0.0 
0 0 0.0 
1.0046 -0.00179089 0.0 
4.98447e-50 -5.49642e-52 0.0 
0.999028 0.00436861 0.0 
1.00008 8.68794e-05 0.0 
0.901672 -0.0217727 0.0 
1.00157 -0.000476171 0.0 
0.0162479 -0.000738344 0.0 
0.0281891 -0.00471061 0.0 
0.0774018 0.00233389 0.0 
0.945682 0.0008286 0.0 
1.00258 -0.000360391 0.0 
1.00433 -0.00223868 0.0 
0.0185307 -0.00314422 0.0 
0.999855 2.56082e-05 0.0 
0.999915 1.18163e-05 0.0 
0.999603 0.00177468 0.0 
0.160651 0.00429377 0.0 
0.999906 5.71177e-05 0.0 
0.88355 -0.0377288 0.0 
1.00015 -0.000223957 0.0 
1.00211 0.000721494 0.0 
1.00334 -0.000190317 0.0 
0.984432 0.0483998 0.0 
0.999991 -0.000848225 0.0 
0 0 0.0 
0 0 0.0 
1.00029 9.89068e-05 0.0 
1.00413 0.00147505 0.0 
0.781478 -0.0133414 0.0 
0.999692 -4.66089e-05 0.0 
0.999759 -0.000784112 0.0 
0.959847 0.0296347 0.0 
0.999995 0.000381681 0.0 
1.00272 -0.00337303 0.0 
1.00498 -3.77981e-06 0.0 
1.00012 5.83297e-05 0.0 
0.999756 7.01918e-05 0.0 
1.00131 0.000707888 0.0 
0.998811 -0.000481864 0.0 
0.271226 0.0245753 0.0 
0.999914 3.57959e-05 0.0 
0.550337 0.0348116 0.0 
1.00085 0 0.0 
-3.1927e-91 1.35253e-92 0.0 
0.000316375 -9.17213e-06 0.0 
1.00001 -0.000238931 0.0 
0.139077 0.0201597 0.0 
0.101287 0.0228557 0.0 
0.867752 0.0328676 0.0 
1.03391 -0.0260035 0.0 
1.00366 0.00655337 0.0 
1.00628 -0.00280512 0.0 
0.83447 0.119595 0.0 
0.84782 0.192454 0.0 
0.0149892 -0.00264629 0.0 
0.999903 3.31867e-05 0.0 
0.999893 3.66564e-06 0.0 
1.00006 0.00192387 0.0 
0.422515 -0.038204 0.0 
1 0.00022482 0.0 
0.435537 0.00796843 0.0 
0.00116744 6.1091e-05 0.0 
0.999949 5.57839e-05 0.0 
0.999579 3.61274e-05 0.0 
1.00304 0.000452689 0.0 
1.00204 -0.00219008 0.0 
0.999857 -2.83681e-06 0.0 
1.00212 -0.000489987 0.0 
0.999913 1.90963e-05 0.0 
0.999867 -2.70419e-05 0.0 
0.75083 -0.0332815 0.0 
1.00014 0.000606085 0.0 
0.994619 0.206413 0.0 
1.00009 7.93324e-05 0.0 
0.999854 -3.79043e-05 0.0 
0.880257 -0.0955507 0.0 
1.00005 -7.14985e-05 0.0 
0.876661 -0.0770784 0.0 
1.09864 0.101664 0.0 
0.0155141 -0.003076 0.0 
0.403726 0.00610943 0.0 
0.0386368 0.00047554 0.0 
0.999904 -8.72348e-06 0.0 
0.999961 0.000209614 0.0 
0.930682 -0.0266796 0.0 
0.250458 -0.011465 0.0 
1.00006 -0.000623299 0.0 
1.00383 0.000767948 0.0 
0.999987 -5.97563e-05 0.0 
0.928658 -0.164195 0.0 
1.00005 -0.00040487 0.0 
0.818013 0.12696 0.0 
0.971385 0.157925 0.0 
1.02967 0.0214615 0.0 
0.962691 -0.056755 0.0 
0.999948 4.52339e-05 0.0 
0.908528 0.0156545 0.0 
0.347072 -0.00650013 0.0 
0.435439 -0.000787553 0.0 
1.00488 -0.00283613 0.0 
1.00123 -0.00632014 0.0 
0.999185 -0.00391605 0.0 
1.00164 -0.00107439 0.0 
1.00076 0.000607565 0.0 
1.00382 -0.00205815 0.0 
1.01308 -0.00175306 0.0 
1.00112 0.016067 0.0 
0.0928557 -0.0045026 0.0 
0.185262 -0.00349089 0.0 
0.999904 4.08309e-06 0.0 
1.00168 -0.00239659 0.0 
0.364689 0.00853692 0.0 
0.326202 0.00797547 0.0 
1.00054 0.000117831 0.0 
0.347511 -0.00167833 0.0 
0.0541349 0.00581631 0.0 
0.369017 -0.00213104 0.0 
1.00066 0.00032532 0.0 
0.833169 0.015141 0.0 
1.00278 0.00265692 0.0 
0.789591 0.141252 0.0 
0.999771 -5.19311e-05 0.0 
1.00445 0.00034455 0.0 
1.00118 0.00104062 0.0 
0.996905 -5.16475e-05 0.0 
1.00295 0.00417334 0.0 
0.0382733 -0.00740534 0.0 
1.00007 -0.00020485 0.0 
0.359626 0.000912654 0.0 
-1.30816e-212 -6.17749e-214 0.0 
0.0295705 4.32286e-05 0.0 
0.797769 -0.000975322 0.0 
0.999837 -0.000241962 0.0 
0.997851 0.00426936 0.0 
0.142381 0.0043123 0.0 
1.00001 -0.00012354 0.0 
0.0408122 0.00282881 0.0 
1.02968 -0.153698 0.0 
1.12306 0.082539 0.0 
0.914641 -0.0160693 0.0 
1.00306 0.00191821 0.0 
0.176482 -0.0214053 0.0 
0.997178 -0.00359702 0.0 
0.000231531 2.34689e-05 0.0 
0.437135 0.00218348 0.0 
1.00328 -0.0177792 0.0 
0.849515 -0.0547559 0.0 
0.999999 -0.000232894 0.0 