<VTKFile type="UnstructuredGrid" version="0.1" byte_order="LittleEndian">
  <UnstructuredGrid>
    <Piece NumberOfPoints="13523" NumberOfCells="26857">
      <Points>
        <DataArray type = "Float64" NumberOfComponents="3" format="ascii">
0 0 0.0 
14 0 0.0 
14 8 0.0 
0 8 0.0 
0.383893 2.91152 0.0 
4.2321 4.07437 0.0 
13.4868 6.98366 0.0 
3.63004 3.86601 0.0 
4.27054 3.99799 0.0 
4.37054 4.03424 0.0 
4.56073 4.06427 0.0 
4.07057 3.9639 0.0 
4.53824 7.43039 0.0 
4.2176 3.98972 0.0 
3.98741 4.04054 0.0 
3.98768 4.02653 0.0 
4.19602 4.09401 0.0 
13.611 1.35207 0.0 
4.04586 3.98488 0.0 
4.34188 4.03717 0.0 
4.00813 4.01182 0.0 
4.47538 4.03375 0.0 
4.67405 4.10923 0.0 
4.1789 4.0308 0.0 
4.80484 4.03022 0.0 
4.61584 4.00791 0.0 
12.1265 0 0.0 
4.10206 3.96084 0.0 
4.94157 3.98326 0.0 
4.30241 3.97961 0.0 
4.70958 7.08222 0.0 
4.13489 4.05432 0.0 
4.57455 4.08211 0.0 
2.46912 6.85608 0.0 
10.5103 5.31673 0.0 
3.91677 4.02041 0.0 
4.5188 4.031 0.0 
0 3.36284 0.0 
4.93697 3.93496 0.0 
4.17952 4.04429 0.0 
3.81908 4.22343 0.0 
10.1734 4.4195 0.0 
4.0273 4.01367 0.0 
1.21408 1.2833 0.0 
6.07435 4.9813 0.0 
4.62342 4.01415 0.0 
4.31012 3.99238 0.0 
5.17517 4.1161 0.0 
4.06235 4.25289 0.0 
9.69128 3.27135 0.0 
5.25249 4.08102 0.0 
4.12607 4.05951 0.0 
4.00565 4.00149 0.0 
4.2483 4.03635 0.0 
4.0955 3.94899 0.0 
4.03444 4.04627 0.0 
4.00163 4.02959 0.0 
4.02005 3.99731 0.0 
5.23503 8 0.0 
13.8261 5.94601 0.0 
10.2825 1.1779 0.0 
4.32421 4.03837 0.0 
5.35828 4.09214 0.0 
4.12608 4.0407 0.0 
11.0142 2.68934 0.0 
4.00988 3.97037 0.0 
4.07221 4.03344 0.0 
4.35473 4.03787 0.0 
4.33263 4.03733 0.0 
4.3749 4.03878 0.0 
4.48765 4.04193 0.0 
4.15825 4.03374 0.0 
4.04672 4.0202 0.0 
4.94501 3.90266 0.0 
4.43969 3.99672 0.0 
4.54772 3.97659 0.0 
3.96947 4.02134 0.0 
4.21303 3.97045 0.0 
5.28835 3.91341 0.0 
3.96297 3.96024 0.0 
4.45409 2.45801 0.0 
14 3.14675 0.0 
4.19187 4.05534 0.0 
4.11692 3.94964 0.0 
10.7133 0.39982 0.0 
3.95785 3.95439 0.0 
7.58425 5.24486 0.0 
4.02972 4.04518 0.0 
4.22492 3.96395 0.0 
3.97141 4.03046 0.0 
4.59238 4.50905 0.0 
3.97561 4.03322 0.0 
3.97816 4.02179 0.0 
4.04633 4.03304 0.0 
3.96767 4.02507 0.0 
4.53971 3.97638 0.0 
4.15165 4.04471 0.0 
2.61514 0.506135 0.0 
4.54225 3.97864 0.0 
4.051 4.00074 0.0 
4.88569 3.98105 0.0 
4.54991 3.98013 0.0 
3.59678 3.72329 0.0 
4.73521 7.52615 0.0 
4.90839 4.00372 0.0 
10.4466 3.51765 0.0 
4.51298 3.98646 0.0 
4.53576 4.02646 0.0 
4.6207 4.09144 0.0 
4.54025 4.00566 0.0 
4.56283 3.99857 0.0 
8.4574 2.322 0.0 
12.6391 3.42289 0.0 
4.45985 4.01961 0.0 
3.10914 5.59567 0.0 
4.00964 3.98933 0.0 
4.98619 3.93198 0.0 
8.48285 5.046 0.0 
4.01554 4.00335 0.0 
6.37297 2.73989 0.0 
6.50541 6.65271 0.0 
4.0914 3.96216 0.0 
3.93276 3.9602 0.0 
5.20281 3.96498 0.0 
4.07105 4.09078 0.0 
3.31161 1.01031 0.0 
4.65935 4.04515 0.0 
4.3099 4.04149 0.0 
4.05312 3.99197 0.0 
13.7435 8 0.0 
4.11702 4.02719 0.0 
6.67367 0 0.0 
4.00932 4.01975 0.0 
6.82471 4.26136 0.0 
4.20354 4.03712 0.0 
5.29269 4.05861 0.0 
4.1403 4.03691 0.0 
3.1002 2.25282 0.0 
6.98691 2.68677 0.0 
5.25032 1.89548 0.0 
14 1.00091 0.0 
11.1865 7.25481 0.0 
6.22735 7.50315 0.0 
11.7245 4.37063 0.0 
4.51917 3.99788 0.0 
4.471 4.06176 0.0 
4.09811 3.98339 0.0 
8.95603 7.57132 0.0 
4.22222 4.09636 0.0 
3.98122 4.01031 0.0 
4.55171 4.00358 0.0 
9.65423 4.26818 0.0 
4.19008 4.04967 0.0 
6.52781 1.51786 0.0 
4.03832 3.98435 0.0 
4.89402 3.94006 0.0 
4.63883 4.00936 0.0 
4.54778 4.01674 0.0 
4.08927 3.9549 0.0 
4.46516 4.00911 0.0 
4.62543 3.98261 0.0 
4.01425 3.98947 0.0 
4.09065 3.95069 0.0 
4.09428 3.96323 0.0 
4.53801 4.03291 0.0 
2.46638 6.41982 0.0 
4.18332 3.96996 0.0 
3.69158 4.54411 0.0 
4.52507 4.00748 0.0 
4.51292 3.99872 0.0 
12.0372 1.49526 0.0 
6.92943 4.80438 0.0 
4.20543 3.97889 0.0 
4.00773 4.00001 0.0 
4.05399 4.05242 0.0 
5.11537 3.91723 0.0 
13.1818 2.98063 0.0 
2.66716 0 0.0 
6.38052 3.13775 0.0 
5.9291 5.15993 0.0 
3.9023 6.84053 0.0 
9.69483 7.24214 0.0 
9.4176 1.73395 0.0 
1.94587 1.61999 0.0 
5.24537 4.1668 0.0 
4.2904 3.92587 0.0 
4.46368 4.04155 0.0 
4.08331 4.07127 0.0 
4.06062 3.97377 0.0 
8.35832 2.9685 0.0 
13.4699 7.45697 0.0 
11.8702 0.212102 0.0 
4.01229 3.97705 0.0 
4.76297 3.98343 0.0 
1.21548 8 0.0 
3.90873 3.96021 0.0 
4.09808 4.03387 0.0 
12.1523 3.04207 0.0 
4.00577 3.97873 0.0 
3.22016 3.3239 0.0 
1.48228 7.49995 0.0 
3.88275 3.53347 0.0 
7.62224 2.88267 0.0 
7.22419 0.703495 0.0 
4.00414 3.99309 0.0 
4.0891 3.98536 0.0 
12.6381 7.48703 0.0 
8.91842 0.967714 0.0 
2.56443 3.80164 0.0 
13.1592 5.25121 0.0 
5.8599 3.0813 0.0 
4.00241 3.93803 0.0 
7.83547 2.82767 0.0 
4.15135 3.98566 0.0 
4.1152 4.03957 0.0 
5.81584 4.04525 0.0 
4.6103 3.91602 0.0 
3.14593 3.72725 0.0 
6.98728 5.60342 0.0 
4.11575 4.03408 0.0 
4.84915 4.03246 0.0 
4.20274 4.07949 0.0 
9.9556 3.59889 0.0 
12.5015 1.14918 0.0 
4.09797 3.95385 0.0 
4.23052 4.09368 0.0 
4.20868 4.08388 0.0 
4.02321 3.97317 0.0 
3.92953 4.29341 0.0 
4.21025 4.03415 0.0 
4.21339 4.02989 0.0 
12.9422 5.39238 0.0 
3.84668 3.90466 0.0 
1.77673 6.77593 0.0 
3.98799 3.95955 0.0 
9.70352 1.23095 0.0 
8.82235 8 0.0 
4.23781 4.09881 0.0 
4.79323 4.50113 0.0 
4.69512 3.9114 0.0 
4.00923 4.01305 0.0 
7.16062 3.035 0.0 
4.06329 4.04721 0.0 
4.35393 4.71785 0.0 
4.18805 3.96826 0.0 
10.151 2.94085 0.0 
4.96928 3.97464 0.0 
3.9678 4.04964 0.0 
0.417479 6.31883 0.0 
4.96907 4.10551 0.0 
13.5337 6.38237 0.0 
4.84809 6.69312 0.0 
4.14301 3.98717 0.0 
3.98977 4.04663 0.0 
3.99153 4.04254 0.0 
4.57553 4.01147 0.0 
4.29622 3.9844 0.0 
7.01384 4.49853 0.0 
4.50991 3.99787 0.0 
3.97296 4.00674 0.0 
11.3714 7.19716 0.0 
9.192 5.81999 0.0 
10.6153 7.62373 0.0 
3.53429 0 0.0 
4.67134 3.89044 0.0 
4.08953 4.02996 0.0 
4.14091 4.04918 0.0 
2.30378 3.03595 0.0 
13.2903 7.45798 0.0 
4.1689 4.04593 0.0 
7.40997 8 0.0 
4.01461 4.01826 0.0 
2.86414 6.59491 0.0 
8.67201 2.39205 0.0 
9.9204 3.84008 0.0 
4.1964 4.04719 0.0 
13.6945 7.80328 0.0 
4.5026 3.99736 0.0 
6.78993 2.13526 0.0 
4.41387 4.02769 0.0 
0.846754 0.565038 0.0 
4.90953 3.97583 0.0 
4.50989 3.99833 0.0 
4.55263 4.00322 0.0 
4.02904 3.9664 0.0 
7.59973 7.22298 0.0 
12.6277 1.80732 0.0 
14 4.58149 0.0 
5.85073 0.410811 0.0 
13.0902 7.46595 0.0 
3.45007 4.08864 0.0 
6.64238 0.26606 0.0 
4.06125 4.07913 0.0 
4.38686 4.07953 0.0 
4.11271 4.04576 0.0 
4.1283 4.05439 0.0 
4.51225 4.03393 0.0 
3.96066 4.00697 0.0 
4.58722 3.08819 0.0 
4.96395 4.01931 0.0 
13.1661 5.68046 0.0 
13.7895 0 0.0 
4.10795 4.02897 0.0 
4.71442 4.01913 0.0 
11.4357 2.10385 0.0 
1.1914 3.57636 0.0 
4.19812 4.04526 0.0 
4.00791 4.0033 0.0 
4.0088 3.9805 0.0 
9.75515 2.36072 0.0 
6.21307 5.48605 0.0 
3.58115 4.19884 0.0 
4.02947 3.97325 0.0 
4.55143 4.02796 0.0 
4.6454 3.91884 0.0 
4.01129 4.00596 0.0 
6.21694 4.34921 0.0 
12.4 3.01856 0.0 
11.2345 4.90909 0.0 
5.97374 5.37063 0.0 
4.01755 3.97046 0.0 
4.52386 4.04096 0.0 
0.195775 6.68759 0.0 
4.34492 4.03478 0.0 
6.42419 4.18044 0.0 
7.6398 2.6807 0.0 
4.05373 4.0206 0.0 
4.0593 4.0207 0.0 
11.1951 3.03229 0.0 
4.30033 6.55304 0.0 
4.11868 3.97589 0.0 
4.15516 3.94365 0.0 
4.01695 3.96353 0.0 
2.89315 5.49872 0.0 
8.32777 8 0.0 
0.348252 3.38744 0.0 
5.4677 4.03011 0.0 
10.0323 4.54408 0.0 
4.07449 3.94324 0.0 
5.06461 4.08435 0.0 
4.00437 3.9841 0.0 
4.09531 4.03723 0.0 
4.0134 3.97877 0.0 
3.03193 6.72582 0.0 
4.5555 3.99978 0.0 
4.01079 3.9893 0.0 
14 3.84943 0.0 
4.36156 4.08272 0.0 
2.48952 3.59766 0.0 
4.44623 3.99096 0.0 
12.326 3.19318 0.0 
4.20001 4.03326 0.0 
5.0604 3.97687 0.0 
4.21639 4.03358 0.0 
3.92685 3.99783 0.0 
3.89766 4.03669 0.0 
11.5792 7.84461 0.0 
0.551344 1.2516 0.0 
4.02575 3.96118 0.0 
6.95088 7.06331 0.0 
6.49849 5.21743 0.0 
6.85323 7.27439 0.0 
4.10259 4.04016 0.0 
4.26037 4.04317 0.0 
4.92704 4.10133 0.0 
4.11022 4.04647 0.0 
5.99012 4.04484 0.0 
11.8351 6.74811 0.0 
4.02074 4.0027 0.0 
4.1127 3.96242 0.0 
9.54961 6.99546 0.0 
4.15116 3.93854 0.0 
4.13176 4.07898 0.0 
10.2186 2.28825 0.0 
0.845864 1.62601 0.0 
4.85957 4.01386 0.0 
11.8107 0.651755 0.0 
4.00279 3.99128 0.0 
4.05385 4.00986 0.0 
4.74535 3.98025 0.0 
6.11886 4.72313 0.0 
6.73412 3.55133 0.0 
6.32476 7.00417 0.0 
12.5996 5.63737 0.0 
4.64409 4.00438 0.0 
4.41867 3.99563 0.0 
4.03795 3.98521 0.0 
3.77161 4.00817 0.0 
3.84343 4.30657 0.0 
2.77495 7.51281 0.0 
1.33311 1.459 0.0 
4.34242 3.99225 0.0 
4.02586 3.98561 0.0 
4.058 3.98601 0.0 
2.41658 7.83801 0.0 
3.96806 4.01296 0.0 
11.0968 5.75296 0.0 
4.55406 3.99831 0.0 
4.52614 3.99765 0.0 
4.00163 4.00499 0.0 
4.15227 4.79432 0.0 
4.53313 4.00673 0.0 
4.5467 4.03146 0.0 
4.21157 4.04585 0.0 
5.18263 3.94369 0.0 
4.53595 4.04072 0.0 
7.20657 5.05296 0.0 
3.05391 4.40989 0.0 
7.99609 6.1415 0.0 
12.5 4.9061 0.0 
7.34292 5.19319 0.0 
4.53323 4.0151 0.0 
5.30644 0.173765 0.0 
0.198711 3.79297 0.0 
4.72583 0.194576 0.0 
3.90471 2.31823 0.0 
4.5409 4.00705 0.0 
4.01845 4.01173 0.0 
4.73456 4.01964 0.0 
13.1197 3.51192 0.0 
4.51557 3.99916 0.0 
4.73668 3.89169 0.0 
4.04877 3.98924 0.0 
3.96886 4.00175 0.0 
4.64006 3.99672 0.0 
4.05594 4.0879 0.0 
4.16854 4.05256 0.0 
2.37857 1.61641 0.0 
4.82507 4.1106 0.0 
4.10171 3.98704 0.0 
7.19396 5.74117 0.0 
0.347962 1.57688 0.0 
3.90895 4.0823 0.0 
4.0108 3.9997 0.0 
7.00233 6.47926 0.0 
7.78364 0 0.0 
6.32437 6.34013 0.0 
4.93652 4.08387 0.0 
5.62592 4.80931 0.0 
4.7383 3.87602 0.0 
5.16073 4.06744 0.0 
4.23813 4.04356 0.0 
1.64832 6.43608 0.0 
13.7604 0.5867 0.0 
4.08295 4.00762 0.0 
4.00353 3.9915 0.0 
4.18035 4.21325 0.0 
4.25841 3.96952 0.0 
4.03014 4.02376 0.0 
4.88498 4.06106 0.0 
4.0104 4.03331 0.0 
4.04639 4.09608 0.0 
4.03631 3.98654 0.0 
4.208 4.04699 0.0 
4.54396 3.89411 0.0 
4.41008 4.02839 0.0 
4.61916 3.98898 0.0 
5.3566 3.74732 0.0 
4.05827 4.04836 0.0 
9.90278 1.9712 0.0 
0.898692 6.20579 0.0 
4.10351 3.9843 0.0 
0.262648 3.59525 0.0 
7.14156 0.150746 0.0 
11.4878 0.917753 0.0 
4.25188 4.04951 0.0 
12.2741 7.78702 0.0 
4.47927 4.02139 0.0 
4.5671 3.97265 0.0 
8.64936 2.61471 0.0 
9.46048 3.26649 0.0 
4.49115 4.01421 0.0 
7.06289 0.290476 0.0 
11.0724 3.76379 0.0 
7.56457 6.83703 0.0 
[...]
<PointData>
  <DataArray type = "Float64" Name="Vitesse" NumberOfComponents="3" format="ascii">
1 0 0.0 
1.00368 0 0.0 
1.00156 0 0.0 
1 0 0.0 
0.999969 -0.000137091 0.0 
0.803407 0.0259612 0.0 
1.00212 -0.00108744 0.0 
0.971963 -0.0109675 0.0 
-3.82383e-161 -2.60563e-162 0.0 
0.0217503 -0.00193403 0.0 
0.57975 -0.0484967 0.0 
0.874695 -0.0944931 0.0 
1.00523 0.000723074 0.0 
0.00211764 0.000218059 0.0 
0.774327 0.19753 0.0 
0.682401 0.189167 0.0 
1.09692 0.0878833 0.0 
1.00412 0.000896606 0.0 
0.0991 0.00220264 0.0 
0.0208078 -0.00186051 0.0 
0.0803332 0.045559 0.0 
0.13298 -0.0159849 0.0 
0.959241 -0.0453151 0.0 
0 0 0.0 
0.371395 -0.0172774 0.0 
0.117803 -0.00180265 0.0 
1.00476 0 0.0 
0.815912 -0.052597 0.0 
0.469708 0.0104964 0.0 
0.2216 0.00577373 0.0 
1.00581 0.00105081 0.0 
0.538813 0.0594461 0.0 
0.78834 -0.0521648 0.0 
1.0017 0.00171047 0.0 
1.00617 -0.00140527 0.0 
0.858463 0.0127912 0.0 
0.146002 -0.0182289 0.0 
1 0 0.0 
0.804177 0.0187435 0.0 
0.0244194 0.000934166 0.0 
0.97046 0.0433691 0.0 
1.00794 -0.00153814 0.0 
0 0 0.0 
1.0002 -0.000574882 0.0 
1.0091 -0.00263112 0.0 
0.132079 -0.00991786 0.0 
0.00739033 0.000565882 0.0 
0.943208 -0.0160679 0.0 
1.02419 0.0819689 0.0 
1.00738 0.000993591 0.0 
0.808532 -0.0157456 0.0 
0.761624 0.104302 0.0 
0 0 0.0 
0 0 0.0 
1.03229 -0.0967383 0.0 
0.924707 0.316391 0.0 
0.720066 0.309285 0.0 
0 0 0.0 
1.00567 0 0.0 
1.00161 -0.00248128 0.0 
1.0057 0.000386739 0.0 
0.0165277 -0.0017755 0.0 
0.857424 -0.0129162 0.0 
1.07985e-143 2.02317e-145 0.0 
1.0063 0.00123309 0.0 
0.963742 -0.325249 0.0 
0.0428742 0.00986741 0.0 
0.0483484 -0.00497364 0.0 
0.00917646 -0.000998472 0.0 
0.0857535 -0.00826469 0.0 
0.238665 -0.0248361 0.0 
0 0 0.0 
0 0 0.0 
0.94821 0.0166646 0.0 
0.00646528 0.000560297 0.0 
0.347454 0.0151101 0.0 
0.725431 0.067363 0.0 
0.397552 0.00445798 0.0 
0.891311 0.00948141 0.0 
0.859668 -0.137451 0.0 
1.00748 -0.00496197 0.0 
1.0057 0.00188305 0.0 
0.373474 0.0154669 0.0 
0.980787 -0.0675108 0.0 
1.00532 0.000134116 0.0 
0.874286 -0.124891 0.0 
1.00722 -0.00137164 0.0 
0.91271 0.324036 0.0 
0.532272 0.00232675 0.0 
0.750299 0.107113 0.0 
1.03255 -0.000796706 0.0 
0.751139 0.13128 0.0 
0.686284 0.10481 0.0 
0.431772 0.132718 0.0 
0.743935 0.0768714 0.0 
0.346005 0.0126844 0.0 
0.0847628 0.00327786 0.0 
1.00143 -0.00061161 0.0 
0.315284 0.01212 0.0 
0 0 0.0 
0.460127 0.0137297 0.0 
0.298796 0.0140646 0.0 
0.981845 -0.0147811 0.0 
1.0054 0.000524409 0.0 
0.379302 0.00111232 0.0 
1.00793 0.00151919 0.0 
0.18585 0.00502654 0.0 
0.120205 -0.0171356 0.0 
0.866451 -0.0504662 0.0 
0.00156711 -0.000270717 0.0 
0.0342846 0.0129725 0.0 
1.00688 0.000332973 0.0 
1.01094 0.00145947 0.0 
3.99132e-11 -6.46188e-12 0.0 
1.00229 0.00587251 0.0 
0.36075 -0.149488 0.0 
0.822093 0.017098 0.0 
1.00707 -0.00130931 0.0 
0 0 0.0 
1.00782 0.000168357 0.0 
1.00676 -0.00034061 0.0 
0.823336 -0.0624651 0.0 
0.87552 -0.0771917 0.0 
0.637468 0.00938652 0.0 
1.04654 0.209355 0.0 
1.00244 -0.00157182 0.0 
0.396103 -0.0358461 0.0 
0.0490446 -0.00322291 0.0 
0 0 0.0 
1.00182 0 0.0 
0 0 0.0 
1.00577 0 0.0 
0.528946 0.307654 0.0 
1.00601 -0.00238239 0.0 
0 0 0.0 
0.695784 -0.0128325 0.0 
0 0 0.0 
1.00125 -0.00404573 0.0 
1.00741 0.000186853 0.0 
1.00692 -0.00166267 0.0 
1.00377 0.000729866 0.0 
1.00415 -0.00044571 0.0 
1.00612 -1.32535e-05 0.0 
1.00359 -0.00315297 0.0 
0.0167411 0.000138936 0.0 
0.505273 -0.0369425 0.0 
0.0790655 0.000200118 0.0 
1.00516 -0.000186047 0.0 
1.08818 0.0641969 0.0 
0.604837 0.0330636 0.0 
0.00299105 -0.000610721 0.0 
0.99565 -0.00129707 0.0 
0.1901 0.00731265 0.0 
1.00653 -0.000296265 0.0 
0.185962 -0.0241605 0.0 
0.771145 0.0207373 0.0 
0.148057 -0.00220487 0.0 
0.0603122 -0.0120521 0.0 
0.979691 -0.0921784 0.0 
0 0 0.0 
0.299222 0.0273176 0.0 
0.154101 -0.0292395 0.0 
1.02739 -0.100725 0.0 
0.782376 -0.0536751 0.0 
0.182502 -0.0235938 0.0 
1.00158 0.00244234 0.0 
0.422114 0.00235978 0.0 
0.996976 0.0236067 0.0 
1.83729e-06 -3.72047e-07 0.0 
0.00017086 8.81355e-06 0.0 
1.00506 0.000677161 0.0 
1.00771 -0.00204185 0.0 
0.212885 0.00471001 0.0 
0 0 0.0 
0.961908 0.274217 0.0 
0.886582 0.0120323 0.0 
1.00408 0.00171914 0.0 
1.00152 0 0.0 
1.00837 0.000280817 0.0 
1.00943 -0.00219738 0.0 
1.00471 0.00208828 0.0 
1.00493 -0.000347294 0.0 
1.00629 0.000426029 0.0 
1.00045 -0.00131195 0.0 
1.00339 -0.012858 0.0 
0.994629 -0.0164271 0.0 
0.212713 -0.0219518 0.0 
1.05924 0.225353 0.0 
0.586436 -0.0572469 0.0 
1.00723 0.0003967 0.0 
1.00213 -0.000565257 0.0 
1.00488 8.47032e-05 0.0 
0.93055 -0.339089 0.0 
0.381721 0.0176287 0.0 
1.00042 0 0.0 
0.892319 -0.0518191 0.0 
0 0 0.0 
1.00558 0.00157512 0.0 
0.895709 -0.385298 0.0 
0.995236 -0.00721849 0.0 
1.00059 0.000418922 0.0 
0.9992 -0.0272744 0.0 
1.00723 0.000282377 0.0 
1.00603 -5.2155e-05 0.0 
0.253337 -0.175497 0.0 
0.0167313 -0.000134754 0.0 
1.00297 -0.000476535 0.0 
1.00598 0.000176365 0.0 
0.995766 -0.000199202 0.0 
1.00326 -0.00363787 0.0 
1.00885 0.000471952 0.0 
0.965779 -0.189623 0.0 
1.00719 0.000308883 0.0 
0.0394969 0.000400983 0.0 
6.21402e-59 1.19991e-59 0.0 
0.696028 -0.00531801 0.0 
0.950352 0.0268022 0.0 
0.990585 -0.00333774 0.0 
1.00751 -0.00124777 0.0 
0 0 0.0 
0.412457 -0.0165452 0.0 
0.951331 0.0615231 0.0 
1.00812 0.00147197 0.0 
1.00473 0.000571644 0.0 
0.969484 -0.0812867 0.0 
1.06468 0.0552281 0.0 
1.00089 0.0626958 0.0 
0.950126 -0.259087 0.0 
0.992841 0.0588062 0.0 
0 0 0.0 
-2.17134e-188 -5.71246e-190 0.0 
1.00338 -0.00329895 0.0 
0.942386 -0.0379811 0.0 
1.00078 0.00125581 0.0 
0.887081 -0.218384 0.0 
1.00592 0.000340991 0.0 
1.00514 0 0.0 
1.0876 0.0540682 0.0 
1.02492 -0.00758558 0.0 
0.950089 0.0281691 0.0 
0.123309 0.0730538 0.0 
1.00753 0.000269443 0.0 
0.81686 0.212499 0.0 
1.02488 0.0131162 0.0 
0.459833 0.0015205 0.0 
1.0069 0.00101267 0.0 
0.530773 0.0130754 0.0 
0.819542 0.126825 0.0 
1.00003 0.000335054 0.0 
0.919762 -0.0251047 0.0 
1.00208 -0.00184287 0.0 
1.00666 0.00133653 0.0 
0.000588666 -7.34923e-06 0.0 
0.804567 0.205458 0.0 
0.787139 0.217404 0.0 
0.0576746 -0.018204 0.0 
0.13479 0.00432977 0.0 
1.00757 -0.00230686 0.0 
0.0129464 0.000513668 0.0 
0.675149 -0.0143101 0.0 
1.00405 -0.000507764 0.0 
1.00624 -0.000915271 0.0 
1.00437 -0.00019451 0.0 
1.00273 0 0.0 
1.00999 0.0239338 0.0 
0 0 0.0 
0.305436 0.0276081 0.0 
0.998496 -0.0020868 0.0 
1.00232 -0.000556399 0.0 
0.0894541 0.00162322 0.0 
1.00571 0 0.0 
0.299795 0.144324 0.0 
1.00239 0.0025057 0.0 
1.00689 0.000384319 0.0 
0.943513 0.00158172 0.0 
0.101584 0.00140875 0.0 
1.00188 -0.000200889 0.0 
0.0183961 0.00189331 0.0 
1.00709 -6.44675e-05 0.0 
0.0073102 -0.00119515 0.0 
1.00013 -0.000181882 0.0 
0.503645 0.0140444 0.0 
0.00650288 0.000366439 0.0 
0.00256888 -0.000491415 0.0 
1.0212 -0.245421 0.0 
1.00584 -0.000302353 0.0 
1.00485 0.000953519 0.0 
1.00399 -0.00564731 0.0 
1.00552 -0.000244083 0.0 
1.00253 -0.000537686 0.0 
0.980911 0.00548018 0.0 
1.00581 -6.68584e-05 0.0 
1.03315 0.234132 0.0 
0.766389 -0.0283252 0.0 
0.315355 0.0439796 0.0 
0.577822 0.0712255 0.0 
0.169521 -0.0201041 0.0 
0.747254 -0.0128444 0.0 
1.01341 -0.00626292 0.0 
0.420521 -0.00709875 0.0 
1.00278 -0.00285205 0.0 
1.00383 0 0.0 
0 0 0.0 
0.246028 -0.0108442 0.0 
1.00568 0.000926423 0.0 
0.999497 -5.82834e-05 0.0 
0.0359291 -0.000273078 0.0 
0 0 0.0 
0.878214 -0.367557 0.0 
1.00665 0.000695277 0.0 
1.00866 -0.00144501 0.0 
0.977605 0.0158061 0.0 
0.898883 -0.2084 0.0 
0.147256 -0.0236654 0.0 
0.927533 0.0290974 0.0 
0 0 0.0 
1.00783 -0.0036983 0.0 
1.00485 0.00199829 0.0 
1.00689 -0.00210952 0.0 
1.00924 -0.0015948 0.0 
0.994775 -0.302469 0.0 
0.258799 -0.0279811 0.0 
1 0.000129133 0.0 
5.5181e-07 -6.5337e-08 0.0 
0.993738 -0.00395159 0.0 
1.0072 0.000251014 0.0 
0 0 0.0 
0 0 0.0 
1.00636 0.00158777 0.0 
1.00608 0.00238133 0.0 
0.312697 -0.00185379 0.0 
0.979063 -0.0464638 0.0 
1.00657 -0.280661 0.0 
1.00129 0.00540473 0.0 
1.00535 0 0.0 
0.999969 -3.99516e-05 0.0 
0.60479 -0.00579268 0.0 
1.00836 -0.00164962 0.0 
1.0806 -0.134819 0.0 
0.82027 -0.0214171 0.0 
0.804959 -0.413611 0.0 
4.48919e-247 1.07633e-247 0.0 
0.892311 -0.319078 0.0 
1.00275 0.00233728 0.0 
2.03109e-46 6.55606e-49 0.0 
0.312431 -0.112638 0.0 
0.969562 -0.000331749 0.0 
0.82177 -0.0217328 0.0 
0.996495 -0.00110063 0.0 
0.0940549 0.00235289 0.0 
1.00449 0.00254016 0.0 
0 0 0.0 
0.543816 0.0100823 0.0 
0 0 0.0 
0.844825 -0.0236116 0.0 
0.884603 0.0251404 0.0 
1.00377 -0.000102732 0.0 
1.00004 -0.000234827 0.0 
1.03635 -0.253193 0.0 
1.0062 -0.000296707 0.0 
1.00816 -0.00186211 0.0 
1.0061 -0.000198214 0.0 
0.112736 0.0155438 0.0 
0.0184544 0.000375687 0.0 
0.906015 -0.0266275 0.0 
0.36625 0.0525425 0.0 
0.709826 -0.0057798 0.0 
1.00392 -0.000958128 0.0 
0 0 0.0 
0.739228 -0.0361428 0.0 
1.00511 -0.000454318 0.0 
1.02888 -0.0558489 0.0 
1.071 0.15358 0.0 
1.00644 0.000796488 0.0 
1.00006 -0.000444637 0.0 
0.348025 -0.00494173 0.0 
1.00496 0.000258321 0.0 
0.499818 -0.352538 0.0 
0 0 0.0 
0.398183 0.0198396 0.0 
1.00914 -0.00332937 0.0 
1.00819 0.000707486 0.0 
1.00648 -0.000126767 0.0 
1.00374 -0.00263718 0.0 
0.162216 0.00411467 0.0 
0.0157048 0.000947182 0.0 
0.130293 -0.0174833 0.0 
0.944503 0.00101079 0.0 
0.984967 0.0443734 0.0 
1.00221 0.000778694 0.0 
1.00021 -0.000714131 0.0 
0.0282414 0.00240254 0.0 
0.251442 -0.0480226 0.0 
2.26006e-05 -2.43895e-06 0.0 
1.00166 0.000228959 0.0 
0.713387 0.0218226 0.0 
1.00533 -0.00146384 0.0 
0.0194366 -0.000339402 0.0 
0.02113 0.000869897 0.0 
1.65022e-09 2.08363e-09 0.0 
1.01707 0.0173136 0.0 
2.6885e-43 -5.14011e-44 0.0 
0.175711 -0.0248223 0.0 
0.0539063 0.00114644 0.0 
0.75475 0.0116079 0.0 
0.265907 -0.0297498 0.0 
1.00744 -0.00166907 0.0 
0.993598 0.00668133 0.0 
1.00637 -0.000813784 0.0 
1.00354 -0.00381717 0.0 
1.00734 -0.00144088 0.0 
0.0375418 -0.00627043 0.0 
1.00507 -0.000158312 0.0 
0.999992 2.86874e-05 0.0 
1.00444 -0.000239634 0.0 
1.00447 -0.00549255 0.0 
0.00676898 -0.00123749 0.0 
0 0 0.0 
0.266169 -0.0109603 0.0 
1.005 0.00178552 0.0 
0.000117787 1.07988e-05 0.0 
0.996037 0.0233496 0.0 
0 0 0.0 
0.706623 -0.0460053 0.0 
0.19047 0.0129785 0.0 
1.02105 0.218806 0.0 
0.337006 0.0200662 0.0 
1.00082 -0.00177598 0.0 
0.944841 -0.0335632 0.0 
4.67149e-80 1.40792e-81 0.0 
1.00723 -0.0011111 0.0 
1.00001 -0.000169817 0.0 
0.90369 0.0630705 0.0 
0 0 0.0 
1.00665 -0.000590572 0.0 
1.00588 0 0.0 
1.00725 -0.000446437 0.0 
0.815331 -0.0265582 0.0 
1.01111 -0.00387664 0.0 
1.01515 0.0208229 0.0 
0.73039 -0.0166652 0.0 
3.22294e-05 -2.38186e-06 0.0 
1.00057 0.00144182 0.0 
1.0039 0.000402439 0.0 
0 0 0.0 
0.452855 -0.307317 0.0 
1.07304 0.0742425 0.0 
0.407011 0.00587755 0.0 
0.181791 0.0616799 0.0 
0.644315 -0.0270874 0.0 
0.784553 0.342677 0.0 
1.00397 0.204194 0.0 
0.0551482 -0.0047928 0.0 
0.0888483 0.00129535 0.0 
1.03026 0.0128229 0.0 
0.00827651 -0.000923749 0.0 
0.228746 0.0228781 0.0 
1.00817 0.00485814 0.0 
0.881546 0.242991 0.0 
1.00632 0.000605556 0.0 
1.00012 0.000785572 0.0 
0.0503307 0.00124995 0.0 
0.999977 6.53422e-06 0.0 
1.00588 -1.67142e-05 0.0 
1.00515 0.000345402 0.0 
0.164868 -0.00416098 0.0 
1.00326 -0.00017856 0.0 
0.0291765 -0.00447821 0.0 
0.407737 0.0267049 0.0 
1.00704 0.00040807 0.0 
1.0077 0.000632642 0.0 
1.01086e-05 -6.15758e-07 0.0 
1.00589 -3.68324e-05 0.0 
0.976145 0.00221666 0.0 
1.00609 -0.000469637 0.0 
1.00445 -0.00132661 0.0 
1.00594 -0.000925377 0.0 
0.211988 0.0672807 0.0 
0.0645152 -0.0021294 0.0 
1.007 0.000784353 0.0 
1.12213 0.0816999 0.0 
0.999697 0.00505293 0.0 
0.961745 -0.0447026 0.0 
0.802687 0.319092 0.0 
-9.78752e-174 -6.32278e-175 0.0 
0.959441 0.148442 0.0 
1.00385 -0.00594257 0.0 
1.01309 -0.0054951 0.0 
0.976651 0.0012139 0.0 
0.0229377 -0.000248156 0.0 
1.0064 -0.00263844 0.0 
0.000127115 -1.31461e-06 0.0 
0.902667 -0.00392548 0.0 
0.0203399 -0.00276654 0.0 
1.00401 -0.000230767 0.0 
0.18421 -0.0202291 0.0 
0.692404 0.000925561 0.0 
0.999119 0.000423468 0.0 
1.03063 -0.0259608 0.0 
0.0134599 0.00120029 0.0 
0.963616 -0.283012 0.0 
0.449102 -0.160109 0.0 
1.00639 -0.000485487 0.0 
1.00565 -0.000482114 0.0 
1.00424 0 0.0 
0.833765 0.117294 0.0 
0.924725 -0.305838 0.0 
0.997326 -0.000782695 0.0 
0.999357 0.000717334 0.0 
1.00662 0.000639278 0.0 
0 0 0.0 
1.00002 -0.000184038 0.0 
1.00343 -0.00396568 0.0 
0 0 0.0 
1.00697 0.00133362 0.0 
0 0 0.0 
0.0265632 -0.00194111 0.0 
0.94235 0.267902 0.0 
3.24048e-124 8.34617e-125 0.0 
1.00024 0.000356387 0.0 
1.00665 0.00115096 0.0 
0 0 0.0 
1.00494 -0.00024175 0.0 
1.01012 0.00418335 0.0 
0.0370876 -0.0039587 0.0 
1.01819 0.0100468 0.0 
1.00104 -0.0013293 0.0 
0.635866 0.0145062 0.0 
1.00079 0 0.0 
0.704892 0.0906301 0.0 
0.962313 -0.0565744 0.0 
1.00136 0.00282783 0.0 
0.105709 0.0275349 0.0 
0.0128451 -0.00240807 0.0 
0.0332518 -0.00343199 0.0 
1.00865 -0.00205732 0.0 
0.283851 -0.0409419 0.0 
1.00617 0.000435598 0.0 
1.00884 0.00192085 0.0 
1.00003 0.000300547 0.0 
1.01329 0.0036184 0.0 
1.00658 0.000917838 0.0 
1.00701 -0.0006637 0.0 
1.00624 -0.000377773 0.0 
0.263 0.187649 0.0 
1.00797 -0.00711971 0.0 
1.00539 -0.000168366 0.0 
0.0802219 0.00125044 0.0 
0.046941 -0.00260108 0.0 
0.33679 0.00508828 0.0 
1.01328 -0.000185814 0.0 
0.493325 -0.0224098 0.0 
0.384103 -0.0108157 0.0 
1.48203e-249 3.55332e-250 0.0 
1.00559 -0.00149242 0.0 
1.00586 0.000465891 0.0 
1.10626 0.0937164 0.0 
0.999796 -0.000812537 0.0 
1 0.000231976 0.0 
0 0 0.0 
1.00574 -0.000230427 0.0 
1.00756 0.000554175 0.0 
0.651958 0.132453 0.0 
0.0143022 0.000963129 0.0 
0.331893 -0.00585707 0.0 
1.00502 0.000143833 0.0 
0.0237873 -0.00254594 0.0 
0.108083 -0.0153009 0.0 
1.0066 -0.000747491 0.0 
0.203572 0.0173531 0.0 
1.00582 0.000266856 0.0 
0.00328903 -0.000806664 0.0 
0.406091 -0.0978621 0.0 
1.00394 0.000252264 0.0 
0.00619231 -0.00137298 0.0 
1.0064 0.000885125 0.0 
0.260218 0.0228589 0.0 
0.000891578 3.682e-05 0.0 
0.812702 0.0141272 0.0 
0.16961 0.0584003 0.0 
1.00832 0.00129802 0.0 
0.868801 -0.0163831 0.0 
0.862287 0.0304646 0.0 
0.300409 0.126312 0.0 
0.997598 0.00165565 0.0 
0.0306565 -0.0168098 0.0 
0.300839 0.00833252 0.0 
0.722979 -0.030836 0.0 
0.959939 -0.000458425 0.0 
0.00158812 -0.000455845 0.0 
1.00564 -0.00102062 0.0 
1.00725 0.000512809 0.0 
1.00756 0.00221151 0.0 
1.00741 0.000306106 0.0 
1.00574 -0.0449667 0.0 
1.00732 0.000547144 0.0 
1 0 0.0 
0.967789 0.00343809 0.0 
1.00504 -0.00248016 0.0 
0.939234 0.0504423 0.0 
0.998892 0.00447544 0.0 
1.00437 0.00137946 0.0 
0.9829 0.139558 0.0 
1.00173 -0.000505607 0.0 
1.1252 0.0841403 0.0 
1.30929e-06 -2.63147e-08 0.0 
0.00317776 -0.000623372 0.0 
1.00595 -6.46468e-05 0.0 
1.00469 -0.00283815 0.0 
0.0138294 -0.00239607 0.0 
0.999989 0.000294154 0.0 
1.00221 -0.00238685 0.0 
0.705754 0.0132889 0.0 
1.03997 -0.00266597 0.0 
1.00432 0.107116 0.0 
1.00466 -0.00281668 0.0 
0.126948 -0.0114578 0.0 
0.5016 -0.0127801 0.0 
0 0 0.0 
1.0044 -0.00307933 0.0 
1 -0.000952821 0.0 
0.00347825 -0.000700756 0.0 
7.1141e-67 -1.83236e-67 0.0 
1.00634 0.00134205 0.0 
1.00401 0.00106991 0.0 
0.561754 -0.0356897 0.0 
1.00606 -0.000865498 0.0 
0.955462 0.0281639 0.0 
0.337781 0.0546084 0.0 
1.00739 -0.000777468 0.0 
1.00622 0.00111077 0.0 
1.04048 0.0233058 0.0 
0.0277999 -0.000168155 0.0 
0.996138 -0.0454763 0.0 
1.00617 -0.000420621 0.0 
1.00725 0.000414004 0.0 
0.89753 0.0309848 0.0 
0.0608025 -0.013202 0.0 
0.99988 0.000975648 0.0 
1.01001 -0.00183086 0.0 
1.00001 -0.000260667 0.0 
1.01247 0.0260913 0.0 
0.861452 0.0313488 0.0 
0.273773 0.00446443 0.0 
1.00758 0.000332787 0.0 
1.00875 0.000169403 0.0 
1.00519 0.00145108 0.0 
1.00597 2.6786e-06 0.0 
0.893599 0.00303585 0.0 
0 0 0.0 
1.00281 0.148211 0.0 
1.00709 0.000455542 0.0 
0.401986 0.00504229 0.0 
0.0126844 -0.0011234 0.0 
0.431648 0.00793389 0.0 
0 0 0.0 
0.9956 -0.00743567 0.0 
1.00682 -0.00151064 0.0 
1.00594 -4.33403e-05 0.0 
1.00458 -0.00181656 0.0 
1.00588 -0.000127434 0.0 
1.00248 -0.00284596 0.0 
1.0044 -0.00138895 0.0 
0.181586 0.000369041 0.0 
1.0043 -0.00298505 0.0 
0 0 0.0 
1.00435 0.00120873 0.0 
1.00465 -0.00135248 0.0 
0.388585 0.00548995 0.0 
1.00451 -0.000207481 0.0 
1.00377 -0.000379313 0.0 
0.00696131 0.00101127 0.0 
1.00245 -0.000750553 0.0 
1.00336 -0.00111146 0.0 
0.886749 -0.0210558 0.0 
0.89324 0.0140599 0.0 
1.00549 0.000100822 0.0 
1.00008 -0.000692466 0.0 
1.00814 0.00201895 0.0 
1.00433 -0.00029146 0.0 
0.927525 -0.164244 0.0 
1.00128 -0.00669034 0.0 
1.00839 0.00213141 0.0 
0 0 0.0 
1.0032 -0.000536523 0.0 
0.0172634 0.00119209 0.0 
0.417348 0.00200609 0.0 
0.912934 -0.016145 0.0 
0.0260726 0.00126038 0.0 
0.433943 -0.00117839 0.0 
1.00796 -0.000166362 0.0 
1.00438 0.00182599 0.0 
0.994577 -0.00141533 0.0 
1.00598 -0.000350434 0.0 
1.05903 0.095192 0.0 
1.00414 -0.00252549 0.0 
0.997483 0.0123346 0.0 
1.00085 0.0168769 0.0 
0.0709723 0.0027991 0.0 
1.00856 -0.00374917 0.0 
1.00293 -0.00170562 0.0 
1.00672 -0.000701038 0.0 
1.00411 -0.00190291 0.0 
1.0107 -0.000507975 0.0 
0.0363472 -0.00715528 0.0 
0.333737 -0.00156981 0.0 
0.353808 -0.00174481 0.0 
1.0056 0.000264709 0.0 
0.00646214 -0.001335 0.0 
1.00686 7.04927e-05 0.0 
0.788036 0.141163 0.0 
0 0 0.0 
1.0059 -0.000629534 0.0 
1.0062 0.000250726 0.0 
0.0133686 0.000325358 0.0 
1.00729 0.00016613 0.0 
1.00007 -0.000223252 0.0 
0.346469 0.00102068 0.0 
0.999997 -0.000439506 0.0 
1.00482 -0.000767212 0.0 
0.794283 -0.00123645 0.0 
0.999832 -0.000286498 0.0 
0.99767 0.0043453 0.0 
1.00617 -0.000945323 0.0 
1.00001 -0.000133599 0.0 
1.0069 0.000186358 0.0 
0.402894 0.031493 0.0 
0.788155 -6.83357e-05 0.0 
1.00584 0.000534834 0.0 
1.00322 0.00220519 0.0 
0.970944 -0.0376408 0.0 
0.988208 0.00155851 0.0 
1.00554 -9.06183e-05 0.0 
1.00466 0.00149055 0.0 
0.835514 -0.051512 0.0 
1 -0.00025508 0.0 
0.322914 -0.234617 0.0 
0.389879 0.0863576 0.0 
0.0547283 0.00201375 0.0 
1.00013 -0.000259195 0.0 
1.00236 0.00981334 0.0 
0.911057 -0.0563081 0.0 
0.620768 0.0269143 0.0 
0.00228064 -2.58704e-05 0.0 
0.44085 -0.0161727 0.0 
-9.61953e-163 -3.41229e-164 0.0 
0.942368 -0.00164117 0.0 
0 0 0.0 
0.0695887 -0.00251401 0.0 
0.989674 0.00223879 0.0 
0.235968 0.00418135 0.0 
0 0 0.0 
0.482599 0.067725 0.0 
1.07973 -0.0934476 0.0 
1.00569 -0.000715578 0.0 
0.885526 -0.0547628 0.0 
0.0151725 -0.0280561 0.0 
1.00513 0.000264358 0.0 
1.00558 -0.000332954 0.0 
0.0396168 -8.73452e-05 0.0 
0.886256 0.0155303 0.0 
0.0216065 0.00350042 0.0 
0.914744 -0.373142 0.0 
0.395641 -0.00958567 0.0 
1.00401 -0.00274105 0.0 
0.79081 0.00186337 0.0 
1.11698 0.0424978 0.0 
1.00623 -0.00109655 0.0 
1.00542 0.00148445 0.0 
0.00878949 5.1333e-05 0.0 
0.60022 0.0142151 0.0 
0.698276 0.00430989 0.0 
0.390435 0.138583 0.0 
1.00424 -0.000359378 0.0 
0.999761 0.0018513 0.0 
1.00499 7.82293e-05 0.0 
1.00469 7.19814e-05 0.0 
1.0254 0.0210022 0.0 
1.00555 0 0.0 
0.883683 -0.0205477 0.0 
0.950698 0.0324359 0.0 
1.00725 0.000213275 0.0 
1.00461 0.00133814 0.0 
0.904558 -0.0944413 0.0 
0.935588 -0.00380444 0.0 
0.0809258 0.0549684 0.0 
1.63546e-90 -2.54586e-91 0.0 
0.965391 0.00418885 0.0 
1.00643 -0.000928035 0.0 
0.599467 -0.000249884 0.0 
1.00681 -0.000953626 0.0 
1.00271 -0.000406042 0.0 
0.968945 -0.00642672 0.0 
0.514276 0.264106 0.0 
0.307857 0.0725005 0.0 
1.0115 -0.0134429 0.0 
0.519063 -0.0464369 0.0 
0.8347 0.29178 0.0 
1.00435 0.00130847 0.0 
1.00332 0 0.0 
1.00572 0.000235408 0.0 
0.914695 0.0302638 0.0 
1.00593 1.82271e-05 0.0 
0.656633 0.0110606 0.0 
0.612305 -0.431384 0.0 
1.00596 -0.000469014 0.0 
1.00542 0.000198369 0.0 
1.00657 -8.68752e-05 0.0 
1.00124 -0.00226292 0.0 
1.00762 -0.0019229 0.0 
0.0470191 -0.00797392 0.0 
1.00654 -0.000257309 0.0 
1.00429 0.000508163 0.0 
1.00712 -0.000544654 0.0 
1.0038 -0.00173236 0.0 
0.974298 -0.0229387 0.0 
0.991509 0.00180012 0.0 
0.0832723 -0.013064 0.0 
0.948631 -0.0516292 0.0 
0.0456102 -0.000202517 0.0 
1.00097 -0.000852269 0.0 
1.00012 -0.00068657 0.0 
0.939884 -0.28356 0.0 
0.999478 0.000172144 0.0 
0.999999 0.000126558 0.0 
0.157186 0.00864405 0.0 
1.00605 -0.00247181 0.0 
1.00464 -0.0034774 0.0 
1.00358 0.00443986 0.0 
0.999923 9.33997e-06 0.0 
0.315319 0.0448526 0.0 
1.00029 0.000672702 0.0 
1.0041 -0.000247711 0.0 
0.19218 0.0666187 0.0 
0.0312845 -0.016342 0.0 