<VTKFile type="UnstructuredGrid" version="0.1" byte_order="LittleEndian">
  <UnstructuredGrid>
    <Piece NumberOfPoints="14082" NumberOfCells="27975">
      <Points>
        <DataArray type = "Float64" NumberOfComponents="3" format="ascii">
0 0 0.0 
14 0 0.0 
14 8 0.0 
0 8 0.0 
5.75759 4.59116 0.0 
4.06805 4.01446 0.0 
4.09185 4.01076 0.0 
4.42051 3.99412 0.0 
3.98249 4.03781 0.0 
4.69846 3.99389 0.0 
4.17471 3.98795 0.0 
4.20434 3.9748 0.0 
5.25282 3.96185 0.0 
4.09474 4.02489 0.0 
4.07057 3.9639 0.0 
4.53824 7.43039 0.0 
4.00476 3.98223 0.0 
3.98741 4.04054 0.0 
3.98768 4.02653 0.0 
4.71108 3.98574 0.0 
4.11038 4.02471 0.0 
4.29253 3.98916 0.0 
0.151059 5.05835 0.0 
4.09747 3.98455 0.0 
4.12647 4.04329 0.0 
4.67405 4.10923 0.0 
4.41541 4.03412 0.0 
5.04053 4.11705 0.0 
4.61584 4.00791 0.0 
4.36318 4.01362 0.0 
12.1265 0 0.0 
4.27878 3.96325 0.0 
0.373721 2.90814 0.0 
4.24298 3.97143 0.0 
4.80479 4.03044 0.0 
4.5071 4.01275 0.0 
4.13489 4.05432 0.0 
4.10412 3.95235 0.0 
6.727 4.8949 0.0 
0.443017 2.69308 0.0 
4.0051 3.9805 0.0 
4.13177 4.05943 0.0 
4.48435 4.03561 0.0 
0 3.36284 0.0 
3.98227 4.03242 0.0 
13.5625 6.74089 0.0 
4.72718 4.00101 0.0 
1.87945 0 0.0 
4.56312 4.08516 0.0 
4.0273 4.01367 0.0 
4.4121 4.03578 0.0 
4.24161 3.9765 0.0 
4.23767 4.08994 0.0 
5.02529 4.04602 0.0 
4.34157 3.99115 0.0 
4.14435 4.02485 0.0 
4.75125 4.02605 0.0 
4.62327 4.01423 0.0 
4.12607 4.05951 0.0 
4.21818 4.02498 0.0 
4.20611 3.9621 0.0 
8.09826 8 0.0 
4.38445 3.9964 0.0 
4.03444 4.04627 0.0 
5.7261 4.10261 0.0 
4.00163 4.02959 0.0 
4.02005 3.99731 0.0 
5.23503 8 0.0 
4.33207 4.03891 0.0 
4.24578 4.03662 0.0 
4.17598 4.02271 0.0 
4.70567 4.06828 0.0 
11.9615 4.02201 0.0 
4.51495 4.02564 0.0 
4.36502 3.97027 0.0 
4.2311 3.94818 0.0 
4.04619 3.99513 0.0 
4.31154 4.03035 0.0 
4.09946 3.95019 0.0 
4.43615 4.04598 0.0 
1.05941 0.44461 0.0 
5.1201 4.07987 0.0 
4.43194 4.05075 0.0 
8.94309 3.8214 0.0 
4.55021 4.02288 0.0 
4.34814 3.97002 0.0 
4.34287 3.99008 0.0 
4.04672 4.0202 0.0 
4.15162 4.02436 0.0 
4.54602 4.02367 0.0 
4.54772 3.97659 0.0 
3.96947 4.02134 0.0 
4.252 3.97304 0.0 
4.49114 3.99775 0.0 
4.8068 4.07819 0.0 
4.18672 4.01699 0.0 
3.96297 3.96024 0.0 
4.27196 4.05104 0.0 
4.15932 4.03394 0.0 
4.94279 3.90004 0.0 
4.04653 3.9802 0.0 
4.11862 4.04044 0.0 
4.51166 3.9975 0.0 
3.95785 3.95439 0.0 
4.18435 4.00902 0.0 
4.02972 4.04518 0.0 
4.42871 4.00972 0.0 
4.21131 3.97058 0.0 
12.1753 3.5088 0.0 
4.18627 3.98087 0.0 
3.97141 4.03046 0.0 
4.10488 4.0334 0.0 
3.97561 4.03322 0.0 
4.15949 3.98087 0.0 
3.97816 4.02179 0.0 
4.04633 4.03304 0.0 
3.96767 4.02507 0.0 
4.53971 3.97638 0.0 
4.90773 4.07277 0.0 
3.99603 4.04719 0.0 
4.54225 3.97864 0.0 
4.22535 4.08603 0.0 
4.5241 3.99701 0.0 
4.54573 3.99843 0.0 
4.54991 3.98013 0.0 
4.09731 3.96436 0.0 
4.56206 1.73437 0.0 
4.11191 4.00352 0.0 
4.23468 3.97496 0.0 
4.73521 7.52615 0.0 
4.54226 4.00518 0.0 
3.99575 4.05299 0.0 
4.95317 3.93216 0.0 
5.11976 3.99642 0.0 
4.21259 3.97823 0.0 
4.02826 4.0375 0.0 
9.16151 6.19849 0.0 
4.4639 3.99918 0.0 
4.22742 3.98838 0.0 
4.06181 3.97838 0.0 
4.50261 3.99493 0.0 
4.11581 4.05249 0.0 
4.20485 3.96887 0.0 
4.50165 4.01331 0.0 
4.23843 3.97477 0.0 
4.38817 4.04368 0.0 
4.10085 3.96045 0.0 
4.83278 4.09824 0.0 
4.19245 4.01729 0.0 
4.50441 4.01032 0.0 
6.37297 2.73989 0.0 
6.50541 6.65271 0.0 
4.21853 3.97497 0.0 
4.31242 3.99218 0.0 
1.8052 6.26991 0.0 
4.09137 3.96212 0.0 
4.80315 3.99771 0.0 
4.3034 3.97966 0.0 
12.6474 3.41509 0.0 
4.05312 3.99197 0.0 
4.25265 3.99052 0.0 
3.92221 3.93745 0.0 
8.79213 7.69146 0.0 
5.24735 4.02641 0.0 
6.67367 0 0.0 
4.01935 4.01948 0.0 
4.16865 4.01577 0.0 
4.11694 4.02689 0.0 
6.74705 7.50701 0.0 
4.81648 4.13567 0.0 
4.42086 4.01374 0.0 
4.46833 4.03306 0.0 
4.03874 3.11132 0.0 
4.55172 4.02496 0.0 
4.2892 4.04238 0.0 
4.14275 4.01366 0.0 
7.39132 0.561385 0.0 
4.30336 3.98164 0.0 
3.97586 4.01385 0.0 
6.22735 7.50315 0.0 
4.21777 4.01721 0.0 
4.31342 4.02595 0.0 
4.42829 4.03689 0.0 
4.00932 4.01975 0.0 
4.31812 3.99326 0.0 
8.95603 7.57132 0.0 
4.11827 3.95614 0.0 
5.43522 4.03987 0.0 
3.98122 4.01031 0.0 
11.5703 4.18823 0.0 
4.95594 3.9994 0.0 
4.57275 3.95317 0.0 
4.178 4.03035 0.0 
4.47144 4.03462 0.0 
4.60004 3.94455 0.0 
11.3934 4.07618 0.0 
4.07784 4.01355 0.0 
4.46834 4.03719 0.0 
4.54778 4.01674 0.0 
4.22323 4.04426 0.0 
13.4652 0.705648 0.0 
4.51166 3.99951 0.0 
4.50635 4.01088 0.0 
4.08904 3.95484 0.0 
4.0103 3.94339 0.0 
4.09428 3.96323 0.0 
4.31617 3.99012 0.0 
4.47259 4.03712 0.0 
4.11653 3.94938 0.0 
5.97632 3.81791 0.0 
4.07765 3.99221 0.0 
0.420829 7.8096 0.0 
10.4118 5.08662 0.0 
4.17086 4.04914 0.0 
12.0372 1.49526 0.0 
4.06763 3.97373 0.0 
4.2213 4.09576 0.0 
10.4619 3.53679 0.0 
4.01084 3.97813 0.0 
4.39789 4.02787 0.0 
4.5129 3.98094 0.0 
5.19362 3.8011 0.0 
5.1143 3.91388 0.0 
1.36117 1.78509 0.0 
6.38052 3.13775 0.0 
5.9291 5.15993 0.0 
4.30002 3.97505 0.0 
3.04298 2.00142 0.0 
9.4176 1.73395 0.0 
3.62413 3.90139 0.0 
3.95176 3.9562 0.0 
0 5.29899 0.0 
4.06974 3.97571 0.0 
4.20552 3.97966 0.0 
4.51663 4.0092 0.0 
8.35832 2.9685 0.0 
13.4699 7.45697 0.0 
0.899885 3.2558 0.0 
4.53151 4.01092 0.0 
4.01229 3.97705 0.0 
4.06076 3.97364 0.0 
4.02873 4.02049 0.0 
4.01787 3.95968 0.0 
6.04324 7.63644 0.0 
4.09808 4.03387 0.0 
3.95901 4.14137 0.0 
4.47528 4.04511 0.0 
4.16417 4.04691 0.0 
4.52684 3.98201 0.0 
4.18843 3.95907 0.0 
4.00577 3.97873 0.0 
4.46517 4.03956 0.0 
6.82114 0.389683 0.0 
4.38006 3.98812 0.0 
4.6659 4.00092 0.0 
7.62224 2.88267 0.0 
7.22419 0.703495 0.0 
4.0141 4.01146 0.0 
4.22747 3.9748 0.0 
4.3038 4.02492 0.0 
4.18471 3.97029 0.0 
0.382887 7.40911 0.0 
4.06259 4.06688 0.0 
4.39152 3.97782 0.0 
5.8599 3.0813 0.0 
4.16056 3.98552 0.0 
4.25035 4.04343 0.0 
4.33824 3.9956 0.0 
10.358 3.36045 0.0 
4.07747 3.98683 0.0 
4.06533 4.00018 0.0 
4.42516 3.99672 0.0 
4.6103 3.91602 0.0 
4.50079 4.00467 0.0 
4.39954 4.01092 0.0 
4.44894 4.02436 0.0 
0 1.32957 0.0 
4.11575 4.03408 0.0 
4.1936 3.98746 0.0 
4.20274 4.07949 0.0 
5.28466 3.91791 0.0 
12.5015 1.14918 0.0 
4.04055 4.33417 0.0 
4.23052 4.09368 0.0 
4.20868 4.08388 0.0 
4.14096 3.98454 0.0 
5.1989 3.96192 0.0 
4.18997 3.98044 0.0 
5.08842 3.97322 0.0 
4.25844 3.98986 0.0 
9.58277 3.65337 0.0 
4.09511 3.94901 0.0 
4.0005 3.94996 0.0 
5.87866 4.04622 0.0 
5.16506 4.12681 0.0 
14 7.50823 0.0 
4.28548 3.98995 0.0 
8.82235 8 0.0 
4.18447 4.02884 0.0 
13.7282 2.46066 0.0 
4.50191 4.01651 0.0 
4.2355 4.09935 0.0 
4.18244 3.97533 0.0 
4.10175 3.97982 0.0 
4.5397 4.00007 0.0 
5.20058 4.15938 0.0 
4.01937 3.98977 0.0 
4.52192 4.01333 0.0 
14 0.777425 0.0 
4.50373 4.02379 0.0 
5.2579 4.08215 0.0 
4.18122 3.97184 0.0 
4.18825 4.05414 0.0 
0.417479 6.31883 0.0 
4.00011 4.0245 0.0 
4.52126 3.97925 0.0 
4.68931 4.01592 0.0 
4.34402 4.01183 0.0 
12.2819 6.14856 0.0 
4.27601 3.98499 0.0 
4.13982 3.9954 0.0 
4.09741 3.95377 0.0 
4.57553 4.01147 0.0 
3.99155 4.04247 0.0 
3.99093 4.05263 0.0 
3.98858 4.04648 0.0 
3.97296 4.00674 0.0 
11.3714 7.19716 0.0 
9.192 5.81999 0.0 
5.51927 4.14829 0.0 
4.1403 4.03691 0.0 
4.54889 4.03765 0.0 
0 1.05889 0.0 
5.30314 4.3287 0.0 
11.016 2.69137 0.0 
2.30378 3.03595 0.0 
4.42792 4.01192 0.0 
4.00535 3.95189 0.0 
7.40997 8 0.0 
6.6627 2.29498 0.0 
2.86414 6.59491 0.0 
4.50624 4.02709 0.0 
4.06419 4.05585 0.0 
3.53445 0 0.0 
4.01369 3.97538 0.0 
4.67171 3.89078 0.0 
5.30391 4.05658 0.0 
6.78993 2.13526 0.0 
6.95076 5.01827 0.0 
0.846754 0.565038 0.0 
4.26408 3.97779 0.0 
4.4209 4.00968 0.0 
13.6419 7.13924 0.0 
4.06328 4.04722 0.0 
7.59973 7.22298 0.0 
12.6277 1.80732 0.0 
14 4.58149 0.0 
5.85073 0.410811 0.0 
13.0902 7.46595 0.0 
4.05781 3.99798 0.0 
4.02912 3.96643 0.0 
3.9878 3.95947 0.0 
4.5031 4.02642 0.0 
0.255049 4.91393 0.0 
4.51303 3.98607 0.0 
1.21362 8 0.0 
4.39347 4.01379 0.0 
3.96066 4.00697 0.0 
4.0897 4.03015 0.0 
4.4704 4.03986 0.0 
4.02321 3.97319 0.0 
13.1661 5.68046 0.0 
13.7895 0 0.0 
4.10795 4.02897 0.0 
4.52182 4.00885 0.0 
11.4357 2.10385 0.0 
4.36083 4.01205 0.0 
4.47071 3.99688 0.0 
4.00791 4.0033 0.0 
4.0088 3.9805 0.0 
9.75515 2.36072 0.0 
3.75639 4.33894 0.0 
4.36003 3.9923 0.0 
4.02947 3.97325 0.0 
4.55298 4.00115 0.0 
4.6454 3.91884 0.0 
4.08949 4.58185 0.0 
0.21871 6.38493 0.0 
4.01129 4.00596 0.0 
4.38809 4.01643 0.0 
4.38866 3.97675 0.0 
4.77849 3.89569 0.0 
4.0396 3.98681 0.0 
4.01755 3.97046 0.0 
4.43691 4.46808 0.0 
4.91538 3.98137 0.0 
4.22574 4.06559 0.0 
4.48619 4.00685 0.0 
4.23256 4.0746 0.0 
13.0308 3.29431 0.0 
4.05347 3.98552 0.0 
4.05373 4.0206 0.0 
4.0593 4.0207 0.0 
4.27228 3.99066 0.0 
4.05622 4.04126 0.0 
4.15922 4.0422 0.0 
4.15516 3.94365 0.0 
4.02263 4.02092 0.0 
4.01683 3.96357 0.0 
8.32777 8 0.0 
4.19264 4.05366 0.0 
4.05396 4.05232 0.0 
12.8259 0.365975 0.0 
4.39641 3.97994 0.0 
4.40106 3.98006 0.0 
4.21084 3.98015 0.0 
5.23161 3.94225 0.0 
4.00437 3.9841 0.0 
4.2677 4.0434 0.0 
4.0134 3.97877 0.0 
3.03193 6.72582 0.0 
4.38562 3.98143 0.0 
4.01079 3.9893 0.0 
4.00498 4.00961 0.0 
4.36156 4.08272 0.0 
13.8358 7.07193 0.0 
4.9657 3.98377 0.0 
4.02021 3.98428 0.0 
8.08535 4.98974 0.0 
4.41431 3.97784 0.0 
2.5098 3.59854 0.0 
4.21036 4.03335 0.0 
4.45447 4.02165 0.0 
4.21732 4.03352 0.0 
4.53888 4.02662 0.0 
11.5792 7.84461 0.0 
0.551344 1.2516 0.0 
6.95963 7.64891 0.0 
4.02575 3.96118 0.0 
4.06468 4.00797 0.0 
4.47643 3.99758 0.0 
4.11053 3.95054 0.0 
4.67388 4.01431 0.0 
4.0595 4.04239 0.0 
4.62355 3.98016 0.0 
4.28066 4.04403 0.0 
3.99422 4.06414 0.0 
4.01703 7.79668 0.0 
11.8351 6.74811 0.0 
4.39828 4.01812 0.0 
4.1127 3.96242 0.0 
4.12 3.97549 0.0 
4.00485 3.95979 0.0 
4.15116 3.93854 0.0 
4.13176 4.07898 0.0 
10.2186 2.28825 0.0 
3.99069 4.07196 0.0 
4.57278 4.01595 0.0 
4.32629 4.10273 0.0 
4.55302 4.00044 0.0 
4.00279 3.99128 0.0 
4.05385 4.00986 0.0 
4.1251 4.00396 0.0 
4.85809 4.01513 0.0 
4.00238 3.93806 0.0 
4.66615 4.02354 0.0 
6.32476 7.00417 0.0 
12.5996 5.63737 0.0 
4.66222 4.02916 0.0 
4.19855 4.03407 0.0 
4.35715 4.00894 0.0 
4.88071 3.97984 0.0 
4.98663 3.97562 0.0 
6.70909 6.94059 0.0 
4.20862 3.97868 0.0 
[...]
<PointData>
  <DataArray type = "Float64" Name="Vitesse" NumberOfComponents="3" format="ascii">
1 0 0.0 
1.00008 0 0.0 
0.999944 0 0.0 
1 0 0.0 
1.00089 -0.0140367 0.0 
2.04952e-270 3.97481e-271 0.0 
0 0 0.0 
0.0392825 0.00137127 0.0 
0.765124 0.172615 0.0 
0.276017 0.0144461 0.0 
0.00275031 0.000136826 0.0 
0.30598 0.00515424 0.0 
0.691336 0.00890555 0.0 
0 0 0.0 
0.877315 -0.0938456 0.0 
1.00372 7.64541e-05 0.0 
0.845393 -0.406043 0.0 
0.77766 0.198586 0.0 
0.685135 0.191035 0.0 
0.343668 0.0201785 0.0 
1e-307 1e-307 0.0 
0.0536614 0.00152883 0.0 
0.999998 0.000130832 0.0 
0.0416975 0.00132962 0.0 
0.118883 0.0100208 0.0 
0.979407 -0.0543999 0.0 
0.0804697 -0.0096676 0.0 
0.978069 -0.0326033 0.0 
0.125956 -0.00168513 0.0 
1e-307 1e-307 0.0 
1.00016 0 0.0 
0.528204 0.00561437 0.0 
0.999971 -0.000103371 0.0 
0.374405 0.00631529 0.0 
0.418476 -0.020954 0.0 
0.00581797 -0.00087345 0.0 
0.546955 0.061253 0.0 
0.977946 -0.0758516 0.0 
0.997193 -0.00490195 0.0 
0.999972 -0.000157582 0.0 
0.873827 -0.39742 0.0 
0.738729 0.0938413 0.0 
0.174057 -0.0206759 0.0 
1 0 0.0 
0.736227 0.164936 0.0 
0.999946 -2.10977e-06 0.0 
0.272041 0.00599346 0.0 
1.00064 0 0.0 
0.849035 -0.0584799 0.0 
1e-307 1e-307 0.0 
0.0960851 -0.0109728 0.0 
0.270626 0.00608036 0.0 
1.03738 0.0440317 0.0 
0.65193 -0.0223732 0.0 
0.0489525 0.000479006 0.0 
1e-307 1e-307 0.0 
0.345044 -0.0185898 0.0 
0.144107 -0.0106308 0.0 
0.7704 0.105953 0.0 
0 0 0.0 
0.589623 -0.000678172 0.0 
1.00078 0 0.0 
0.000292736 2.29832e-05 0.0 
0.930172 0.315828 0.0 
0.953842 -0.0239178 0.0 
0.724388 0.311715 0.0 
1e-307 1e-307 0.0 
1.00336 0 0.0 
0.0375922 -0.00506183 0.0 
2.81408e-180 -1.60664e-181 0.0 
0 0 0.0 
0.710684 -0.0494166 0.0 
0.999931 8.52085e-05 0.0 
0.103522 -0.0142791 0.0 
0.398274 0.00837359 0.0 
0.82327 -0.009641 0.0 
-2.26452e-103 -5.83266e-105 0.0 
-4.32662e-219 4.52973e-221 0.0 
1.01568 -0.0877145 0.0 
0.261206 -0.0248392 0.0 
1.00018 -0.000158248 0.0 
0.872928 -0.0300388 0.0 
0.330247 -0.0288298 0.0 
0.999212 0.000498718 0.0 
0.115128 -0.0203047 0.0 
0.40134 0.0081984 0.0 
0.0667272 0.00141332 0.0 
0 0 0.0 
1e-307 1e-307 0.0 
0.117679 -0.0192182 0.0 
0.356694 0.0156822 0.0 
0.727633 0.0682852 0.0 
0.341581 0.00636908 0.0 
0.0122937 0.000244961 0.0 
0.817538 -0.0431926 0.0 
0 0 0.0 
0.861575 -0.137372 0.0 
0.214842 -0.00928872 0.0 
0 0 0.0 
0.963424 0.0190348 0.0 
0.371406 -0.0340283 0.0 
0.0265885 0.00202398 0.0 
0.0209136 0.00104083 0.0 
0.876247 -0.124794 0.0 
0 0 0.0 
0.918037 0.32367 0.0 
1e-307 1e-307 0.0 
0.399364 0.00494869 0.0 
0.999967 9.77385e-05 0.0 
0.166943 0.00439927 0.0 
0.752852 0.10797 0.0 
-8.17046e-139 -1.51432e-139 0.0 
0.753634 0.132393 0.0 
0.159978 0.00425123 0.0 
0.68852 0.106118 0.0 
0.436823 0.135187 0.0 
0.746249 0.0777335 0.0 
0.354929 0.0130546 0.0 
0.799911 -0.03577 0.0 
0.818863 0.232887 0.0 
0.323868 0.0124807 0.0 
1.01282 0.04945 0.0 
0.033971 0.00114052 0.0 
0.0167757 -0.000419159 0.0 
0.307329 0.014548 0.0 
0.740602 -0.0449706 0.0 
1.00487 -0.00126329 0.0 
1e-307 1e-307 0.0 
0.301584 0.00677638 0.0 
1.00367 -3.55326e-05 0.0 
0.00150692 -0.000201222 0.0 
0.841449 0.221478 0.0 
0.836491 0.0202066 0.0 
0.533454 0.00240914 0.0 
0.231006 0.0054873 0.0 
0.839992 0.322016 0.0 
0.999914 -0.000414408 0.0 
-8.44266e-88 -1.48434e-89 0.0 
0.0341572 0.0013595 0.0 
0.364912 -0.0299144 0.0 
0.0584071 0.0020102 0.0 
0.590991 0.0854792 0.0 
0.440092 0.00367444 0.0 
0.00429978 -0.000456163 0.0 
0.305617 0.00649524 0.0 
0.178486 -0.0169264 0.0 
0.832552 -0.0551555 0.0 
0.928637 -0.042928 0.0 
0 0 0.0 
-3.35035e-47 3.48187e-48 0.0 
1.00341 0.00517541 0.0 
1.0021 -0.0017047 0.0 
0.301664 0.0063904 0.0 
0.0167295 -0.000398354 0.0 
1.00065 0.00168427 0.0 
0.826846 -0.061885 0.0 
0.347791 0.00644317 0.0 
0.225737 0.00672324 0.0 
0.999985 7.5161e-05 0.0 
2.71945e-178 -4.10884e-179 0.0 
0.0113509 0.00102373 0.0 
0.910014 -0.074665 0.0 
1.0004 -0.000123025 0.0 
0.643404 -0.0131804 0.0 
1.00265 0 0.0 
0.202619 0.0967723 0.0 
0 0 0.0 
1e-307 1e-307 0.0 
1.00193 -0.00053492 0.0 
1.01212 -0.0417188 0.0 
-2.02302e-223 4.66873e-224 0.0 
0.128404 -0.015907 0.0 
1.00814 -0.0121064 0.0 
0.134502 -0.0229877 0.0 
0.0424391 -0.00257734 0.0 
0 0 0.0 
1.002 0.000505649 0.0 
0.190447 0.00618717 0.0 
0.667091 0.0463378 0.0 
1.00253 -0.000546561 0.0 
0 0 0.0 
1e-307 1e-307 0.0 
0.128421 -0.0147665 0.0 
0.532247 0.307216 0.0 
4.22345e-05 7.00605e-06 0.0 
1.00033 -0.000155383 0.0 
0.874189 -0.0491914 0.0 
0.762886 -0.0229092 0.0 
0.606252 0.0343296 0.0 
0.999899 9.0682e-05 0.0 
0.448036 0.00229801 0.0 
0.665375 0.0307826 0.0 
0 0 0.0 
0.149274 -0.0180271 0.0 
0.75487 0.034794 0.0 
0.999889 0.000108053 0.0 
1e-307 1e-307 0.0 
0.176483 -0.0202595 0.0 
0.066729 -0.013036 0.0 
0.0189678 -0.0017252 0.0 
1.00009 1.93909e-05 0.0 
0.000761738 5.29717e-05 0.0 
8.55931e-06 -6.83418e-07 0.0 
0.984385 -0.0921939 0.0 
0.985147 -0.20781 0.0 
0.784983 -0.053166 0.0 
0.0523289 0.00208855 0.0 
0.180018 -0.0207839 0.0 
0.98796 -0.0680903 0.0 
1.00912 0.014907 0.0 
-1.33063e-143 -1.16785e-144 0.0 
1.00004 3.99446e-05 0.0 
0.999767 -2.19342e-05 0.0 
0.212707 0.0119216 0.0 
1.00011 0.000102071 0.0 
0.546789 -0.0448505 0.0 
1.09484 0.063606 0.0 
0.999827 0.000256364 0.0 
0.917039 -0.350887 0.0 
-2.56865e-132 3.11748e-133 0.0 
0.274767 0.00737876 0.0 
1.01263 0.00965877 0.0 
0.914586 0.0140145 0.0 
1.0001 -0.00071623 0.0 
1.00333 0.00752051 0.0 
1.00257 -0.00748871 0.0 
0.308519 0.00728542 0.0 
1.00144 -0.00302908 0.0 
1.00036 0.000600754 0.0 
0.972435 -0.00818646 0.0 
0.873728 -0.111227 0.0 
1 0 0.0 
0.449555 -0.0305749 0.0 
0.198594 0.00470279 0.0 
4.4807e-06 -4.07512e-07 0.0 
0.99955 0.00149929 0.0 
0.999946 -1.77685e-06 0.0 
0.999778 -0.000124516 0.0 
0.017255 -0.00308998 0.0 
0.931692 -0.339342 0.0 
0.591271 -0.0578864 0.0 
-6.55269e-96 -1.78911e-96 0.0 
1.01236 -0.263699 0.0 
1.00272 -0.000384769 0.0 
-3.23239e-216 -4.7311e-217 0.0 
0.952661 0.103333 0.0 
0.286894 -0.0289467 0.0 
0.141307 0.0106678 0.0 
0.265521 0.00781447 0.0 
0.673235 -0.00684978 0.0 
0.89731 -0.385224 0.0 
0.202843 -0.0222198 0.0 
1.00253 0.000357071 0.0 
0.113534 0.00381164 0.0 
0.208311 0.00805146 0.0 
0.999714 0.0028419 0.0 
1.00214 0.000655037 0.0 
-2.50471e-217 -1.5737e-217 0.0 
0.305011 0.00682802 0.0 
0 0 0.0 
0.416959 0.00305112 0.0 
1.00003 0.000120683 0.0 
1.03616 0.255062 0.0 
0.280604 0.00708471 0.0 
1.00716 0.00681106 0.0 
0.0474571 0.00319137 0.0 
0.0201197 -0.00184056 0.0 
-5.31468e-45 9.80216e-47 0.0 
0.999838 0.000300007 0.0 
2.24529e-05 -3.99226e-07 0.0 
1e-307 1e-307 0.0 
0.00452468 -4.80041e-05 0.0 
0.958247 0.0294862 0.0 
-7.71663e-50 -2.10122e-51 0.0 
1e-307 1e-307 0.0 
0.0222058 -0.00243533 0.0 
1 0 0.0 
1e-307 1e-307 0.0 
0.0290571 -0.000180861 0.0 
0.96229 0.0610632 0.0 
0.890145 0.00976615 0.0 
1.00011 6.17308e-05 0.0 
1.02071 0.0570798 0.0 
1.07424 0.0536352 0.0 
1.01153 0.0620674 0.0 
0.0613835 0.0014081 0.0 
0.683723 0.0109341 0.0 
0.177406 0.00451106 0.0 
0.602132 0.0108302 0.0 
0.0244291 0.00118776 0.0 
0.999588 0.000398958 0.0 
1.03551 -0.0966291 0.0 
0.950115 -0.219012 0.0 
0.839054 -0.0181581 0.0 
0.992047 -0.0303353 0.0 
0.999944 -1.85589e-06 0.0 
0.0371136 0.000236912 0.0 
1.00041 0 0.0 
1e-307 1e-307 0.0 
1.00004 3.63059e-05 0.0 
0.0220212 -0.00339304 0.0 
1.10123 0.0538346 0.0 
0.295994 0.00478334 0.0 
0.203094 -0.00104106 0.0 
0.000113729 3.53552e-06 0.0 
1.00688 -0.0300039 0.0 
-2.13297e-45 6.66133e-46 0.0 
0.0215189 -0.00369309 0.0 
1.00008 1.31292e-05 0.0 
0.0761589 -0.0106222 0.0 
0.897861 -0.0294521 0.0 
0.381208 0.00355462 0.0 
0.348639 0.0123684 0.0 
1.00003 0.0003278 0.0 
0.66375 0.314092 0.0 
0.303593 0.00868439 0.0 
0.231725 -0.00933623 0.0 
0 0 0.0 
0.999932 -4.83736e-06 0.0 
0.119584 0.00348946 0.0 
1e-307 1e-307 0.0 
0.97521 -0.0818512 0.0 
0.0630341 -0.0186589 0.0 
0.790323 0.218718 0.0 
0.833478 0.20477 0.0 
0.806359 0.201166 0.0 
0.676708 -0.0135118 0.0 
0.999962 -2.83181e-05 0.0 
0.999762 -0.000403764 0.0 
0.996269 -0.027403 0.0 
1e-307 1e-307 0.0 
0.262816 -0.0336091 0.0 
1 0 0.0 
1.00847 -0.0235955 0.0 
1.00001 0.000239914 0.0 
0.998564 -0.00207024 0.0 
1e-307 1e-307 0.0 
0.96403 -0.231526 0.0 
1.0013 0 0.0 
1.00278 0.0033323 0.0 
1.00222 0.0020104 0.0 
0.107795 -0.0144051 0.0 
0.981406 0.252316 0.0 
1.00242 0 0.0 
0.951763 -0.329403 0.0 
1.01353 0.0271616 0.0 
0.799327 -0.0247177 0.0 
1.00249 0.00286877 0.0 
0.998239 -0.0038261 0.0 
1.00011 -0.000157624 0.0 
0.250374 0.00616524 0.0 
1e-307 1e-307 0.0 
0.999945 -2.30257e-06 0.0 
0.821114 0.210699 0.0 
1.00102 -0.000634384 0.0 
1.00007 7.73925e-05 0.0 
0.999972 1.10304e-05 0.0 
1.00332 0.000228888 0.0 
0.999947 -2.30471e-06 0.0 
1e-307 1e-307 0.0 
1.02383 -0.245805 0.0 
0.888855 -0.217684 0.0 
0.0983717 -0.0132509 0.0 
0.99999 0.000209235 0.0 
0.198218 0.0049511 0.0 
1.0004 0 0.0 
1e-307 1e-307 0.0 
0.74908 -0.0122964 0.0 
7.12476e-182 8.90758e-183 0.0 
0.212028 -0.023296 0.0 
0.951457 -0.260236 0.0 
0.999945 7.17525e-06 0.0 
1.00009 0 0.0 
1e-307 1e-307 0.0 
0.000129796 -1.47132e-05 0.0 
1.00008 0.000180792 0.0 
1e-307 1e-307 0.0 
0.0181346 0.000384239 0.0 
1e-307 1e-307 0.0 
0.879092 -0.367195 0.0 
1.00008 0.000551973 0.0 
0.98613 0.0313124 0.0 
0.040065 0.000919013 0.0 
0.901504 -0.209962 0.0 
-5.11588e-51 8.25494e-52 0.0 
0.936467 0.0319687 0.0 
1.02152 0.0252914 0.0 
1.00001 0.000163096 0.0 
0 0 0.0 
0 0 0.0 
0.296991 0.00739535 0.0 
0.988215 0.0256796 0.0 
0.00101132 -4.86639e-05 0.0 
0.996666 -0.303216 0.0 
1.0419 0.00339148 0.0 
0.496426 0.0126524 0.0 
0.620066 0.014012 0.0 
-7.19112e-143 -4.1516e-144 0.0 
0.819209 0.0254673 0.0 
0.999998 5.97839e-05 0.0 
0.0516971 -6.97717e-05 0.0 
0 0 0.0 
0 0 0.0 
0.0201581 0.00153018 0.0 
0.691965 0.1852 0.0 
-3.19291e-51 -1.97815e-52 0.0 
0.982954 -0.0458427 0.0 
0.200521 0.0831772 0.0 
1.00852 -0.281503 0.0 
1.00064 0 0.0 
0.322979 0.00946856 0.0 
0.965815 0.272265 0.0 
1.00012 1.68376e-05 0.0 
0.248489 0.00640168 0.0 
0.248105 0.0064308 0.0 
0.189665 0.0048078 0.0 
0.785181 0.0120451 0.0 
0.806223 -0.41248 0.0 
0.0342893 -0.00272262 0.0 
0.893042 -0.319297 0.0 
1.0025 0.00177676 0.0 
0.221164 0.00608737 0.0 
0.311901 -0.112688 0.0 
0.0672787 0.0561056 0.0 
0.840503 -0.0246464 0.0 
0.999945 -2.6554e-06 0.0 
0.505328 0.011221 0.0 
0.474124 -0.121993 0.0 
0.998828 -0.000986176 0.0 
0.286922 0.00756326 0.0 
0.996599 -0.00124635 0.0 
0 0 0.0 
0.00579717 -0.00062752 0.0 
0 0 0.0 
0.136514 -0.0198008 0.0 
0.999969 -4.92314e-06 0.0 
1.00003 -0.000203459 0.0 
1.00171 -0.000356045 0.0 
1.03912 -0.253631 0.0 
1e-307 1e-307 0.0 
0.0123941 0.00115237 0.0 
0.986782 -0.0721044 0.0 
0.209476 -0.00759843 0.0 
0.695281 0.179864 0.0 
0.335762 0.0307188 0.0 
0.0655763 -0.00266205 0.0 
0.872802 0.200111 0.0 
1.00335 0.000128056 0.0 
0.999942 -1.96134e-05 0.0 
1e-307 1e-307 0.0 
0.742487 -0.0360832 0.0 
0.326334 -0.00196479 0.0 
0.952482 -0.263213 0.0 
1.03255 -0.0551771 0.0 
1.07742 0.153771 0.0 
1.00009 0.000404277 0.0 
0.887179 0.182058 0.0 
0.0812386 -0.0249297 0.0 
1.05892 0.000350185 0.0 
-2.51049e-133 5.26081e-135 0.0 
0.501584 -0.344638 0.0 
0 0 0.0 
1e-307 1e-307 0.0 
0.38758 -0.00764919 0.0 
0.967917 -0.18961 0.0 
0.241204 -0.0188409 0.0 
1.00244 -0.00118596 0.0 
0.999934 8.75673e-06 0.0 
0.277364 -0.0256705 0.0 
0 0 0.0 
1e-307 1e-307 0.0 
0.489266 0.0152776 0.0 
0.556299 0.0134208 0.0 
1.00187 -0.00122892 0.0 
0.220445 0.00497207 0.0 
0.999909 0.000106249 0.0 
0.0537125 -0.0258523 0.0 
0.0692738 0.00296259 0.0 
-1.53032e-44 -2.08416e-45 0.0 
0.715297 0.0226256 0.0 
0.999883 -3.48907e-05 0.0 
0.999753 -0.00521316 0.0 
1e-307 1e-307 0.0 
1.00436 -0.0132355 0.0 
1.00853 0.00207017 0.0 
0.878777 0.0194402 0.0 
1e-307 1e-307 0.0 
0.192282 -0.0271944 0.0 
1.01275 0.00912428 0.0 
0.310694 0.0288328 0.0 
0.0460562 -0.00649762 0.0 
0.99835 -0.00282461 0.0 
0.994106 0.00595922 0.0 
0.999269 0.000198635 0.0 
0.144744 -0.0184706 0.0 
0.999169 0.0066657 0.0 
1.0067 -0.00731844 0.0 
0.0796329 0.00226135 0.0 
1.03588 -0.00705639 0.0 
0.999992 4.07428e-05 0.0 
1.00341 -7.50654e-05 0.0 
1.00133 -0.000581212 0.0 
1.00002 -5.50487e-05 0.0 
0.0012071 -0.000239469 0.0 
0.307229 -0.0343687 0.0 
1.00348 2.15959e-05 0.0 
0.560462 0.000578148 0.0 
1.00076 0.00164908 0.0 
0.163211 -0.0257773 0.0 
0.99244 0.00933015 0.0 
0.951964 -0.0311659 0.0 
0.708149 -0.0454294 0.0 
0.0711645 -0.00294558 0.0 
0.569322 0.0151934 0.0 
0.998965 -0.00189853 0.0 
1.01309 0.00615041 0.0 
0.983279 -0.0151496 0.0 
0.968858 -0.0433117 0.0 
0.343175 0.00846768 0.0 
8.91051e-271 1.7281e-271 0.0 
1e-307 1e-307 0.0 
1.00001 -0.000147508 0.0 
0.0180735 -0.00259055 0.0 
0.849899 -0.0172601 0.0 
1e-307 1e-307 0.0 
0.360007 -0.149014 0.0 
1.00168 0 0.0 
1.00233 -0.00235868 0.0 
0 0 0.0 
1.00414 -0.0122544 0.0 
0.184997 0.00556983 0.0 
0.492837 0.0109907 0.0 
0.965585 -0.325722 0.0 
1.00057 0.00137347 0.0 
1.0048 -0.0111841 0.0 
1.00008 1.28772e-05 0.0 
0.284871 -0.0315307 0.0 
0.999912 0.0268153 0.0 
1.17318e-256 8.87803e-258 0.0 
0.186495 0.0291245 0.0 
0.978941 0.0177523 0.0 
0.472289 -0.00286721 0.0 
0.789831 0.344114 0.0 
0.66868 -0.0118184 0.0 
0.136812 -0.0179463 0.0 
0.206822 -0.0269596 0.0 
0.42853 0.00625525 0.0 
1.0005 0.00128607 0.0 
0.249759 0.017278 0.0 
0.410012 0.0194904 0.0 
0.19609 0.0151775 0.0 
0.433174 -0.0584123 0.0 
1.00461 -0.00183985 0.0 
1.00261 0.000564194 0.0 
0.978638 0.0150025 0.0 
0.0688437 -0.00386121 0.0 
0.928064 -0.0285509 0.0 
1.00224 0.000137624 0.0 
0.305259 0.00814597 0.0 
0.142747 0.0342294 0.0 
1.0187 0.0241083 0.0 
1.23514e-260 -2.9113e-262 0.0 
1.07908 0.089018 0.0 
1.03841 -0.18966 0.0 
0.279007 -0.173155 0.0 
0.999963 0.001211 0.0 
0.912079 -0.0230554 0.0 
0.999664 0.000557552 0.0 
0.000123333 4.85e-06 0.0 
1.00231 0.000266443 0.0 
1e-307 1e-307 0.0 
0.999947 0 0.0 
1.00221 0.00478343 0.0 
1.00365 -0.000616721 0.0 
0.0208946 0.000728526 0.0 
1e-307 1e-307 0.0 
0.0868937 -0.00801969 0.0 
1.00223 -0.00128403 0.0 
0.999748 0.000645765 0.0 
0.99997 -3.27012e-05 0.0 
0.814779 0.145855 0.0 
0.998231 -0.000560161 0.0 
1.07393 -0.0604077 0.0 
1.02753 -0.0151934 0.0 
0.807647 0.320384 0.0 
0.999975 -6.54488e-06 0.0 
0.418119 -0.0291777 0.0 
0.712409 0.0172463 0.0 
0.928864 -0.147176 0.0 
0.0202854 -0.00430697 0.0 
0 0 0.0 
1.01735 -0.00115022 0.0 
0.251465 -0.050613 0.0 
0.541244 0.00616576 0.0 
1e-307 1e-307 0.0 
0.691618 -0.0140194 0.0 
0.999938 0.000711226 0.0 
0.99884 0.00412938 0.0 
-1.65889e-223 7.00449e-225 0.0 
0.962887 -0.0299288 0.0 
1.00012 0.000786403 0.0 
0.341806 0.00824631 0.0 
0.183256 0.00589538 0.0 
0.000867761 6.38649e-05 0.0 
0.71355 9.25782e-05 0.0 
0.0685083 -0.00755397 0.0 
0.959711 0.0311313 0.0 
0.268682 -0.166254 0.0 
0.778318 -0.0265142 0.0 
1.00034 -0.000535463 0.0 
0.964254 -0.284267 0.0 
0.999329 -0.114507 0.0 
0 0 0.0 
0.926648 -0.30614 0.0 
0.997495 -0.000847924 0.0 
0.999404 0.000778313 0.0 
1.00391 -0.000851889 0.0 
1.14687e-258 -1.78142e-258 0.0 
1.00001 -0.000159961 0.0 
1e-307 1e-307 0.0 
0.999977 -0.0268499 0.0 
0.999887 0.000307699 0.0 
0.470907 -0.00342864 0.0 
-8.48605e-87 -7.88916e-88 0.0 
1.06186 0.0572073 0.0 
0.0135232 0.00142747 0.0 
1.00023 0.000343819 0.0 
0 0 0.0 
0.999972 -0.00051352 0.0 
1.00016 -0.000120919 0.0 
1.00869 0.000796754 0.0 
0.999946 -2.31265e-06 0.0 
1.00057 0.000397536 0.0 
0.993442 -0.00744739 0.0 
0.206337 0.00586249 0.0 
0.998516 0.0220035 0.0 
0.651794 0.0140601 0.0 
0.70714 0.0917567 0.0 
0.895314 0.199414 0.0 
0.0100538 -0.00175811 0.0 
1.00008 -0.00292682 0.0 
0 0 0.0 
0.99982 0.00048233 0.0 
0.970148 0.0120825 0.0 
0.99995 3.12888e-07 0.0 
1e-307 1e-307 0.0 
1.0025 -0.000996215 0.0 
1.00036 0.000512271 0.0 
1.02685 0.237861 0.0 
1.01086 0.0103513 0.0 
1.00003 0.000296883 0.0 
1.00003 0.000381623 0.0 
0.00172774 -6.01544e-05 0.0 
1.00432 0.00192397 0.0 
0.0545817 -0.00754002 0.0 
0.999301 -0.00678197 0.0 
1.00401 -6.37824e-05 0.0 
0.99831 -0.0236961 0.0 
1.00338 0.000108535 0.0 
0 0 0.0 
0.999559 0.000104348 0.0 
1.02667 0.009115 0.0 
0.0213092 -0.00514525 0.0 
1e-307 1e-307 0.0 
0.431988 -0.0137854 0.0 
1.01831 0.00573743 0.0 
0.0669913 0.0437532 0.0 
1.03713 0.215448 0.0 
1.00079 0.00203715 0.0 
0.999974 4.69178e-05 0.0 
1.00139 0.0017548 0.0 
0.812313 0.110169 0.0 
1.0126 0.22267 0.0 
0.99997 -1.35757e-05 0.0 
0.339727 0.00574501 0.0 
0.798934 0.127634 0.0 
0.998499 -0.000872217 0.0 
1.00021 4.14267e-05 0.0 
0.351024 -0.0288193 0.0 
0.183798 0.00473305 0.0 
1.02014 0.0148606 0.0 
0.164483 0.00441939 0.0 
0.412896 0.000629815 0.0 
1.00001 -3.19773e-05 0.0 
0.0895386 0.0319689 0.0 
0.388241 0.00908467 0.0 
0.981781 0.00513858 0.0 
0.277897 0.0072596 0.0 
1.00318 0.000125099 0.0 
1e-307 1e-307 0.0 
1.00453 -0.000382888 0.0 
1.00845 0.0133636 0.0 
0.999797 -4.48653e-05 0.0 
1.00033 0.000259679 0.0 
0.242896 0.0248982 0.0 
1.03878 -0.060254 0.0 
0.212144 0.0190435 0.0 
0.872641 0.0330267 0.0 
1.00015 -0.00241018 0.0 
1.00092 0.00178225 0.0 
1.0027 0.000233696 0.0 
0.0328332 -0.017255 0.0 
3.35377e-05 -6.45125e-06 0.0 
1.00547 0.000528029 0.0 
0.04209 -0.00700978 0.0 
0.048589 0.00169135 0.0 
0.27499 -0.328871 0.0 
0.838873 0.0194447 0.0 
0.467858 -0.0205701 0.0 
0.999983 3.68756e-05 0.0 
0.650804 -0.0536524 0.0 
1.00094 0.00475473 0.0 
1.02052 -0.0537585 0.0 
0.541119 0.0168486 0.0 
0.153951 -0.0295558 0.0 
0.477227 -0.0104307 0.0 
1e-307 1e-307 0.0 
0.994447 0.0590874 0.0 
1.00437 -0.00132575 0.0 
1.00544 0.0118639 0.0 
0.999022 0.00403133 0.0 
1.00005 4.56099e-05 0.0 
-8.00027e-91 -9.67682e-93 0.0 
1.0016 -0.000458733 0.0 
0.901896 -0.00939941 0.0 
0.884791 -0.0232615 0.0 
1.00475 0.000746836 0.0 
1.00123 -0.00368485 0.0 
1.0019 -0.000301815 0.0 
1.00417 -0.00178571 0.0 
1.00006 -0.00152811 0.0 
8.14509e-05 5.74514e-06 0.0 
0.999947 1.89967e-06 0.0 
0.020299 -0.00344558 0.0 
0.89352 -0.0816847 0.0 
0.0218042 0.00138669 0.0 
1.01207 0.00868479 0.0 
0.745437 0.0189885 0.0 
0.0309992 -0.00517955 0.0 
0.99774 0.00598409 0.0 
1 -4.18897e-144 0.0 
1.00077 0.00247313 0.0 
0.999979 -0.000809382 0.0 
0.749984 -0.0280534 0.0 
0.807894 -0.0313139 0.0 
0.165057 0.00427479 0.0 
0.0356492 0.0454395 0.0 
0.999944 2.71921e-05 0.0 
0.999821 -3.13749e-05 0.0 
0.999829 -0.000480169 0.0 
0.96303 0.0310929 0.0 
0.999992 0.000217004 0.0 
1.00164 -0.00278208 0.0 
1.00421 -0.000269521 0.0 
-1.85178e-49 6.5748e-52 0.0 
1e-307 1e-307 0.0 
1.00204 0.000631294 0.0 
0.272888 0.0227682 0.0 
0.0114751 -0.00255464 0.0 
1.00001 5.67811e-05 0.0 
1.01209 0.182844 0.0 
0.0010549 -6.27166e-05 0.0 
1e-307 1e-307 0.0 
0.999661 8.34943e-06 0.0 
1.00001 -0.000223124 0.0 
1.001 -0.000284052 0.0 
1.00112 0 0.0 
0.87267 0.0342122 0.0 
1.00017 5.84265e-05 0.0 
1.00029 0.00543942 0.0 
1.0048 -0.00308388 0.0 
1.0001 -0.000144659 0.0 
0.999858 3.49129e-05 0.0 
1.00347 0.00336676 0.0 
0.831542 -0.00757591 0.0 
0.0020799 5.81841e-05 0.0 
0.999891 0.0010829 0.0 
0.98544 0.047474 0.0 
1 0.000226055 0.0 
1.00302 0.00165065 0.0 
1.00007 3.04638e-05 0.0 
0.999969 2.53976e-05 0.0 
0.999756 1.70838e-05 0.0 
1.0022 0.000426902 0.0 
0.923742 0.00776968 0.0 
0.999916 -6.79257e-06 0.0 
1.00152 -0.000390785 0.0 
0.999947 5.71383e-06 0.0 
0.999923 -2.04887e-05 0.0 
0.946439 0.00084858 0.0 
1.00006 0.000352364 0.0 
1.0008 0.000489332 0.0 
1.00006 4.16568e-05 0.0 
0.999915 -2.70781e-05 0.0 
1.03546 -0.0258065 0.0 
1.00004 -4.57389e-05 0.0 
0.999309 -0.00021789 0.0 
0.999915 9.50146e-06 0.0 
0.016665 -0.00300388 0.0 
2.85953e-177 7.87076e-178 0.0 
0 0 0.0 
0.999943 -8.27064e-06 0.0 
0.999948 1.49074e-05 0.0 
0.982287 -0.00155264 0.0 
0.264969 -0.0125444 0.0 
1.00006 -0.000583368 0.0 
0.357371 0.0238236 0.0 
0.999998 -3.83471e-05 0.0 
0.929597 -0.164175 0.0 
0.999625 0.00174953 0.0 
0.819226 0.127428 0.0 
0.443117 0.00820755 0.0 
1.92165e-05 -3.08698e-06 0.0 
1.00129 -0.00172339 0.0 
0.0162145 -0.00336358 0.0 
1.00733 -0.0031266 0.0 
0.995334 0.206305 0.0 
0.437717 -0.00133705 0.0 
1.00353 -0.00279187 0.0 
1.00136 -0.0059958 0.0 
0.212156 0.095234 0.0 
1.00111 -0.00081612 0.0 
0.88429 -0.0376677 0.0 
1.00367 -0.0016688 0.0 
1.01168 -0.00333548 0.0 
1.00138 0.0151272 0.0 
0.366889 -0.00819358 0.0 
0.999942 1.37167e-05 0.0 
0.999942 -1.54058e-06 0.0 
1.001 -0.00182043 0.0 