<VTKFile type="UnstructuredGrid" version="0.1" byte_order="LittleEndian">
  <UnstructuredGrid>
    <Piece NumberOfPoints="13647" NumberOfCells="27105">
      <Points>
        <DataArray type = "Float64" NumberOfComponents="3" format="ascii">
0 0 0.0 
14 0 0.0 
14 8 0.0 
0 8 0.0 
0 1.32407 0.0 
4.20537 3.96901 0.0 
4.02416 3.98881 0.0 
13.0674 7.81526 0.0 
0.382322 2.91093 0.0 
4.18812 3.97951 0.0 
4.0703 4.0343 0.0 
4.52332 4.00381 0.0 
4.07057 3.9639 0.0 
4.53824 7.43039 0.0 
4.04925 4.02939 0.0 
3.98741 4.04054 0.0 
3.98768 4.02653 0.0 
4.19282 3.98712 0.0 
2.15974 5.93568 0.0 
4.23229 4.04779 0.0 
4.154 3.9625 0.0 
4.48487 4.03495 0.0 
8.79181 7.69132 0.0 
4.67405 4.10923 0.0 
4.1789 4.0308 0.0 
4.80484 4.03022 0.0 
4.61584 4.00791 0.0 
4.33081 4.04075 0.0 
12.1265 0 0.0 
4.0798 4.00972 0.0 
4.47266 4.03381 0.0 
4.64856 3.9899 0.0 
4.08053 4.05653 0.0 
4.13489 4.05432 0.0 
4.45845 4.02109 0.0 
4.21494 3.98869 0.0 
12.8262 0.365959 0.0 
4.42837 4.03709 0.0 
4.49553 3.9967 0.0 
0 3.36284 0.0 
4.93697 3.93496 0.0 
0 1.05165 0.0 
4.14561 3.98608 0.0 
4.5493 4.03647 0.0 
4.51066 4.02165 0.0 
4.0273 4.01367 0.0 
10.1777 4.42123 0.0 
4.164 4.15618 0.0 
4.62342 4.01415 0.0 
4.17281 4.10264 0.0 
5.17517 4.1161 0.0 
4.05501 4.11058 0.0 
4.05546 4.02877 0.0 
4.00011 4.02449 0.0 
4.12607 4.05951 0.0 
5.18384 3.76407 0.0 
4.2483 4.03635 0.0 
4.0955 3.94899 0.0 
4.03444 4.04627 0.0 
4.00163 4.02959 0.0 
4.02005 3.99731 0.0 
5.23503 8 0.0 
4.30375 3.97965 0.0 
11.3713 7.83957 0.0 
2.39629 0 0.0 
5.35828 4.09214 0.0 
4.10559 3.98492 0.0 
9.9954 4.75982 0.0 
4.58866 4.06562 0.0 
4.23209 4.07438 0.0 
4.41952 3.99457 0.0 
4.49917 3.99742 0.0 
4.06521 4.00005 0.0 
4.06762 3.97376 0.0 
4.16823 3.98695 0.0 
4.24237 3.97949 0.0 
4.04672 4.0202 0.0 
4.94501 3.90266 0.0 
3.63162 3.86569 0.0 
4.54772 3.97659 0.0 
3.96947 4.02134 0.0 
4.43327 4.48159 0.0 
2.12531 0 0.0 
3.96297 3.96024 0.0 
4.21254 3.97074 0.0 
4.15932 4.03394 0.0 
4.01397 4.00232 0.0 
4.11692 3.94964 0.0 
4.10995 3.98405 0.0 
3.95785 3.95439 0.0 
4.09052 3.99336 0.0 
4.02972 4.04518 0.0 
4.00498 4.00961 0.0 
3.97141 4.03046 0.0 
2.85027 3.42188 0.0 
3.97561 4.03322 0.0 
3.97816 4.02179 0.0 
4.04633 4.03304 0.0 
3.96767 4.02507 0.0 
4.53971 3.97638 0.0 
8.40952 2.0809 0.0 
4.10698 4.03994 0.0 
4.54225 3.97864 0.0 
4.04549 4.34776 0.0 
4.51735 3.99894 0.0 
4.54991 3.98013 0.0 
4.10205 3.96083 0.0 
4.57278 4.01593 0.0 
4.73521 7.52615 0.0 
4.53255 3.97521 0.0 
4.10155 3.98559 0.0 
5.2844 3.91484 0.0 
4.34958 4.01696 0.0 
4.21259 3.97823 0.0 
7.97633 2.05223 0.0 
4.06171 3.97809 0.0 
4.01703 7.79668 0.0 
4.11581 4.05249 0.0 
4.66537 4.02952 0.0 
1.03284 2.15008 0.0 
4.17997 4.09143 0.0 
5.25304 4.08067 0.0 
4.32637 4.10272 0.0 
4.05958 4.04239 0.0 
5.45662 5.22808 0.0 
4.02344 4.02033 0.0 
9.76923 3.74591 0.0 
4.04278 3.98507 0.0 
6.37297 2.73989 0.0 
6.50541 6.65271 0.0 
4.0914 3.96216 0.0 
3.94265 3.95401 0.0 
5.20281 3.96498 0.0 
4.46248 4.02131 0.0 
10.4908 7.41058 0.0 
4.65935 4.04515 0.0 
12.6474 3.41509 0.0 
4.05312 3.99197 0.0 
13.7435 8 0.0 
4.11702 4.02719 0.0 
6.67367 0 0.0 
4.00932 4.01975 0.0 
6.82471 4.26136 0.0 
4.20354 4.03712 0.0 
3.99732 3.99732 0.0 
4.00079 4.008 0.0 
4.53969 3.92793 0.0 
0 5.96412 0.0 
4.4729 3.99586 0.0 
4.53943 3.99839 0.0 
3.77115 4.26027 0.0 
6.22735 7.50315 0.0 
12.529 6.19703 0.0 
4.51345 3.99714 0.0 
4.09913 3.98413 0.0 
4.05908 4.0108 0.0 
8.95603 7.57132 0.0 
4.09466 4.03941 0.0 
5.36297 4.11445 0.0 
3.98122 4.01031 0.0 
11.5703 4.18823 0.0 
11.3933 4.0761 0.0 
4.14521 4.17521 0.0 
7.15438 4.87817 0.0 
4.22298 4.24054 0.0 
9.80691 3.09022 0.0 
4.32046 1.78584 0.0 
4.54778 4.01674 0.0 
4.08927 3.9549 0.0 
4.22147 4.0961 0.0 
4.10938 3.98599 0.0 
4.20997 0.181458 0.0 
7.6928 3.03499 0.0 
4.09428 3.96323 0.0 
4.94157 3.98327 0.0 
4.01115 3.99128 0.0 
4.51938 4.03102 0.0 
4.18332 3.96996 0.0 
7.7278 7.63087 0.0 
4.7387 4.07041 0.0 
0.762019 5.13086 0.0 
12.0372 1.49526 0.0 
4.46551 3.99778 0.0 
4.41297 3.99709 0.0 
10.4619 3.53679 0.0 
4.68705 4.01621 0.0 
5.11537 3.91723 0.0 
4.02204 4.01739 0.0 
3.99474 4.00051 0.0 
6.38052 3.13775 0.0 
5.9291 5.15993 0.0 
4.18822 4.04288 0.0 
5.29324 4.05768 0.0 
9.4176 1.73395 0.0 
4.20327 3.97947 0.0 
5.24537 4.1668 0.0 
14 3.6095 0.0 
4.35436 4.03759 0.0 
4.65153 4.02457 0.0 
4.37571 4.03919 0.0 
8.35832 2.9685 0.0 
13.4699 7.45697 0.0 
4.1403 4.03691 0.0 
4.01229 3.97705 0.0 
4.06076 3.97364 0.0 
4.8618 5.24939 0.0 
3.90674 3.97638 0.0 
4.09808 4.03387 0.0 
4.43997 4.02957 0.0 
4.00577 3.97873 0.0 
4.46979 4.03982 0.0 
4.4508 4.02306 0.0 
4.47711 4.00763 0.0 
5.52005 4.01043 0.0 
7.62224 2.88267 0.0 
7.22419 0.703495 0.0 
4.30643 3.99207 0.0 
4.52947 3.99713 0.0 
4.72674 4.01395 0.0 
4.48564 4.01612 0.0 
4.58474 4.501 0.0 
13.4868 6.98366 0.0 
5.8599 3.0813 0.0 
2.92108 4.80681 0.0 
6.40969 2.27914 0.0 
4.51222 4.06035 0.0 
4.55037 4.00822 0.0 
4.00988 3.97037 0.0 
4.6103 3.91602 0.0 
2.61514 0.506135 0.0 
4.88569 3.98105 0.0 
4.11575 4.03408 0.0 
4.25357 3.99124 0.0 
4.20274 4.07949 0.0 
4.62529 3.9827 0.0 
12.5015 1.14918 0.0 
4.09797 3.95385 0.0 
4.23052 4.09368 0.0 
4.20868 4.08388 0.0 
3.59975 3.72259 0.0 
0.199854 7.79206 0.0 
4.90839 4.00372 0.0 
4.21025 4.03415 0.0 
4.52684 4.01389 0.0 
7.58471 5.24477 0.0 
4.05731 4.02647 0.0 
4.00964 3.98933 0.0 
3.98799 3.95955 0.0 
12.0185 5.47288 0.0 
6.26265 7.14539 0.0 
8.82235 8 0.0 
3.98472 3.78204 0.0 
13.8261 5.94601 0.0 
4.2355 4.09935 0.0 
4.69512 3.9114 0.0 
4.1927 4.036 0.0 
4.70958 7.08222 0.0 
4.06437 4.05592 0.0 
4.06329 4.04721 0.0 
4.01354 4.01478 0.0 
4.18805 3.96826 0.0 
4.06988 4.08974 0.0 
4.98619 3.93198 0.0 
4.12911 4.03938 0.0 
0.417479 6.31883 0.0 
4.51326 3.98631 0.0 
4.05396 4.05241 0.0 
13.0519 3.93435 0.0 
3.93594 4.15836 0.0 
3.98977 4.04663 0.0 
3.99153 4.04254 0.0 
4.57553 4.01147 0.0 
4.1039 3.99411 0.0 
10.4928 5.29986 0.0 
1.21524 8 0.0 
3.97296 4.00674 0.0 
11.3714 7.19716 0.0 
9.192 5.81999 0.0 
3.10914 5.59567 0.0 
3.53429 0 0.0 
4.67134 3.89044 0.0 
4.08953 4.02996 0.0 
11.016 2.69137 0.0 
2.30378 3.03595 0.0 
1.60222 4.99327 0.0 
3.31161 1.01031 0.0 
7.40997 8 0.0 
4.02321 3.97317 0.0 
2.86414 6.59491 0.0 
4.50395 4.01169 0.0 
4.19563 4.09364 0.0 
4.39533 4.03199 0.0 
4.35414 4.03488 0.0 
11.1865 7.25481 0.0 
6.78993 2.13526 0.0 
4.21034 3.97999 0.0 
0.846754 0.565038 0.0 
4.4185 3.97288 0.0 
4.00241 3.93804 0.0 
4.51539 3.99834 0.0 
4.20754 3.97865 0.0 
7.59973 7.22298 0.0 
12.6277 1.80732 0.0 
14 4.58149 0.0 
5.85073 0.410811 0.0 
13.0902 7.46595 0.0 
3.96816 4.17193 0.0 
4.02912 3.96643 0.0 
4.36411 4.03306 0.0 
4.15459 4.04311 0.0 
4.14091 4.04918 0.0 
4.00813 4.01182 0.0 
4.51225 4.03393 0.0 
3.96066 4.00697 0.0 
4.00773 4.00001 0.0 
4.96395 4.01931 0.0 
13.1661 5.68046 0.0 
13.7895 0 0.0 
4.10795 4.02897 0.0 
4.29922 3.99254 0.0 
11.4357 2.10385 0.0 
10.2824 1.17531 0.0 
4.42903 4.04386 0.0 
4.00791 4.0033 0.0 
4.0088 3.9805 0.0 
9.75515 2.36072 0.0 
4.23783 3.99086 0.0 
3.95556 4.79888 0.0 
4.02947 3.97325 0.0 
5.01113 4.1034 0.0 
4.6454 3.91884 0.0 
4.01129 4.00596 0.0 
4.53666 4.02644 0.0 
4.96929 3.97465 0.0 
4.45455 2.45817 0.0 
4.76297 3.98343 0.0 
4.01755 3.97046 0.0 
4.52386 4.04096 0.0 
4.05099 4.00074 0.0 
0.384822 4.35157 0.0 
6.42419 4.18044 0.0 
3.88477 3.53305 0.0 
4.05373 4.0206 0.0 
4.0593 4.0207 0.0 
4.18123 3.9384 0.0 
4.68458 4.02212 0.0 
4.11868 3.97589 0.0 
4.15516 3.94365 0.0 
8.48287 5.04599 0.0 
4.01683 3.96357 0.0 
8.32777 8 0.0 
4.00414 3.99309 0.0 
4.77971 4.48808 0.0 
4.84915 4.03246 0.0 
6.49425 0.938237 0.0 
5.06461 4.08435 0.0 
4.00437 3.9841 0.0 
4.55145 4.028 0.0 
4.0134 3.97877 0.0 
3.03193 6.72582 0.0 
5.25032 1.89548 0.0 
4.01079 3.9893 0.0 
4.19227 4.0555 0.0 
4.36156 4.08272 0.0 
4.20056 3.98765 0.0 
4.60418 3.96374 0.0 
2.49698 3.5985 0.0 
4.20001 4.03326 0.0 
1.48233 7.50025 0.0 
4.21639 4.03358 0.0 
4.20039 3.93083 0.0 
13.611 1.35207 0.0 
11.5792 7.84461 0.0 
0.551344 1.2516 0.0 
4.02575 3.96118 0.0 
4.29389 4.0432 0.0 
6.49849 5.21743 0.0 
3.10089 2.25184 0.0 
4.63876 4.06434 0.0 
4.53825 4.03291 0.0 
4.06053 4.07839 0.0 
4.71924 4.00853 0.0 
1.06432 1.49826 0.0 
11.8351 6.74811 0.0 
4.22553 4.07149 0.0 
4.1127 3.96242 0.0 
4.01425 3.98947 0.0 
4.15116 3.93854 0.0 
4.13176 4.07898 0.0 
10.2186 2.28825 0.0 
3.89408 4.12152 0.0 
6.98728 5.60342 0.0 
4.85957 4.01386 0.0 
3.58165 4.19817 0.0 
4.00279 3.99128 0.0 
4.05385 4.00986 0.0 
4.32424 3.99217 0.0 
4.2532 4.04441 0.0 
3.69161 4.5439 0.0 
6.32476 7.00417 0.0 
12.5996 5.63737 0.0 
4.64409 4.00438 0.0 
3.92875 4.29269 0.0 
9.00321 4.86505 0.0 
1.21408 1.2833 0.0 
5.8106 5.00161 0.0 
13.1818 2.98063 0.0 
4.47088 4.06221 0.0 
11.5808 3.97719 0.0 
4.41517 4.02713 0.0 
4.79265 3.99229 0.0 
4.56283 3.99857 0.0 
3.96806 4.01296 0.0 
11.0968 5.75296 0.0 
9.69483 7.24214 0.0 
4.84809 6.69312 0.0 
4.34951 4.71277 0.0 
6.52781 1.51786 0.0 
0.348252 3.38746 0.0 
4.5467 4.03146 0.0 
8.91842 0.967714 0.0 
4.51763 3.98491 0.0 
4.53595 4.04072 0.0 
7.20657 5.05296 0.0 
3.05391 4.40989 0.0 
4.15362 3.98722 0.0 
4.26297 3.98952 0.0 
4.30985 3.99251 0.0 
4.53323 4.0151 0.0 
10.6153 7.62373 0.0 
0.198711 3.79297 0.0 
4.72583 0.194576 0.0 
4.38666 4.07986 0.0 
11.5619 2.8637 0.0 
13.1592 5.25121 0.0 
5.30927 0.171783 0.0 
4.42267 4.0275 0.0 
3.77134 4.0081 0.0 
4.90954 3.97583 0.0 
4.73668 3.89169 0.0 
4.04877 3.98924 0.0 
3.96886 4.00175 0.0 
4.64006 3.99672 0.0 
4.36261 4.03666 0.0 
3.45165 4.08815 0.0 
4.25192 3.98721 0.0 
4.21561 3.97353 0.0 
4.82507 4.1106 0.0 
6.64238 0.26606 0.0 
4.57455 4.08212 0.0 
0.347962 1.57688 0.0 
4.93903 4.11785 0.0 
12.9422 5.39238 0.0 
4.39627 4.0396 0.0 
7.78364 0 0.0 
6.32437 6.34013 0.0 
3.93277 3.96019 0.0 
5.62592 4.80931 0.0 
4.7383 3.87602 0.0 
4.50325 3.99885 0.0 
2.13112 6.6549 0.0 
1.64832 6.43608 0.0 
13.7604 0.5867 0.0 
4.62068 4.09144 0.0 
4.32951 3.99288 0.0 
4.16979 4.03888 0.0 
4.25841 3.96952 0.0 
4.03014 4.02376 0.0 
6.20333 4.3105 0.0 
4.0104 4.03331 0.0 
4.11006 3.98529 0.0 
8.09708 4.14948 0.0 
4.2134 4.02988 0.0 
3.84352 4.30624 0.0 
4.19624 4.04731 0.0 
[...]
<PointData>
  <DataArray type = "Float64" Name="Vitesse" NumberOfComponents="3" format="ascii">
1 0 0.0 
1.00116 0 0.0 
0.999822 0 0.0 
1 0 0.0 
1 0 0.0 
0.433517 0.00360048 0.0 
7.34456e-14 -1.09889e-14 0.0 
1.00005 -6.82655e-05 0.0 
0.999969 -0.000134852 0.0 
0.196807 0.00384284 0.0 
0.124947 0.0336379 0.0 
1.20109e-175 -1.67956e-176 0.0 
0.874524 -0.0941711 0.0 
1.00518 0.000693815 0.0 
0.131235 0.0383247 0.0 
0.774557 0.197543 0.0 
0.68278 0.189268 0.0 
0.0335688 0.000994486 0.0 
1.00077 0.00264945 0.0 
0.11482 -0.00151988 0.0 
0.641737 -0.0121628 0.0 
0.155528 -0.017988 0.0 
1.00413 -0.000337262 0.0 
0.959573 -0.0453633 0.0 
4.28582e-298 9.07176e-300 0.0 
0.371962 -0.0172996 0.0 
0.11808 -0.00182366 0.0 
0.0617858 -0.00514291 0.0 
1.00248 0 0.0 
0 0 0.0 
0.131652 -0.0155637 0.0 
0.247981 0.0192525 0.0 
0.929776 0.208071 0.0 
0.539945 0.0599401 0.0 
0.00723292 -0.00137659 0.0 
0.0185966 0.000959558 0.0 
1.00189 0.000280345 0.0 
0.123612 -0.0138904 0.0 
0.0260328 0.000806776 0.0 
1 0 0.0 
0.804688 0.0187744 0.0 
1 0 0.0 
0.0265908 0.0021457 0.0 
0.229775 -0.0298523 0.0 
0.0599922 -0.00894073 0.0 
0 0 0.0 
1.00419 -0.00754475 0.0 
1.09075 0.099638 0.0 
0.132384 -0.00994035 0.0 
1.12169 0.112965 0.0 
0.943572 -0.0162296 0.0 
1.01801 0.182542 0.0 
8.54689e-97 1.68134e-97 0.0 
0.660448 0.311042 0.0 
0.762655 0.104695 0.0 
1.00985 0.00676847 0.0 
0 0 0.0 
1.03222 -0.0969737 0.0 
0.92539 0.316107 0.0 
0.720516 0.309414 0.0 
0 0 0.0 
1.00557 0 0.0 
0.222005 0.00566747 0.0 
1.00113 -0.000148993 0.0 
1.0012 0 0.0 
0.857868 -0.0131795 0.0 
0.0307642 0.00129342 0.0 
1.00253 -0.00645572 0.0 
0.605038 -0.0503716 0.0 
0.804194 0.0261324 0.0 
0.0305927 0.000730755 0.0 
0.0165571 0.00104504 0.0 
0 0 0.0 
0.543725 -0.0430901 0.0 
0.020214 0.00180108 0.0 
0.209306 0.00441017 0.0 
0 0 0.0 
0.948594 0.0167147 0.0 
0.97195 -0.0110236 0.0 
0.348091 0.0150228 0.0 
0.725767 0.0674507 0.0 
1.03837 0.00962346 0.0 
1.00092 0 0.0 
0.859823 -0.137291 0.0 
0.391902 0.00496767 0.0 
0 0 0.0 
0 0 0.0 
0.981165 -0.0677318 0.0 
0.0601782 0.00116135 0.0 
0.874442 -0.124736 0.0 
-5.45004e-251 -3.17307e-253 0.0 
0.913338 0.323798 0.0 
0.0696215 0.0584075 0.0 
0.750637 0.107103 0.0 
0.995668 -0.00345453 0.0 
0.751253 0.131427 0.0 
0.686649 0.104905 0.0 
0.433452 0.133397 0.0 
0.744248 0.0769541 0.0 
0.346533 0.0125128 0.0 
1.00591 0.000957435 0.0 
0.0686161 0.00852674 0.0 
0.315868 0.0119396 0.0 
1.01884 0.0564644 0.0 
0.000469715 2.63788e-05 0.0 
0.29944 0.0140351 0.0 
0.817213 -0.0532953 0.0 
0.0737275 -0.0240221 0.0 
1.00534 0.000496529 0.0 
0.359242 0.0117091 0.0 
3.52898e-05 -2.83488e-06 0.0 
0.886847 0.00943956 0.0 
0 0 0.0 
0.228429 0.00555551 0.0 
1.00615 0.000747328 0.0 
0.381506 -0.0274479 0.0 
1.00426 0.000309166 0.0 
0.583678 0.083861 0.0 
0.256109 -0.0226268 0.0 
0.999982 -0.000612165 0.0 
1.09666 0.102543 0.0 
0.807495 -0.01584 0.0 
1.04736 0.00395667 0.0 
0.691428 0.18138 0.0 
1.01124 -0.00170531 0.0 
0.123504 0.0509448 0.0 
0.990287 0.00326917 0.0 
0.102688 -0.0157322 0.0 
1.00781 0.000604918 0.0 
1.00656 -0.000559426 0.0 
0.824028 -0.0631798 0.0 
0.879303 -0.0955244 0.0 
0.637997 0.00949136 0.0 
0.0127063 -0.00152341 0.0 
1.00206 -0.000700567 0.0 
0.396636 -0.0358692 0.0 
0.999908 0.00371335 0.0 
0 0 0.0 
0.999874 0 0.0 
0 0 0.0 
1.00546 0 0.0 
0.529452 0.308003 0.0 
1.00728 -0.00298796 0.0 
1e-307 0 0.0 
0.278326 -0.329768 0.0 
0.179799 0.176088 0.0 
0.897707 0.0187169 0.0 
1 0 0.0 
0.0306116 0.000317999 0.0 
0.0139685 -0.000731365 0.0 
0.976972 0.0357074 0.0 
1.00592 -8.26714e-05 0.0 
0.999721 -0.000854107 0.0 
0.0255787 0.00162476 0.0 
0.0545444 -0.000901753 0.0 
0 0 0.0 
1.00397 -0.000483696 0.0 
0.137291 0.0205766 0.0 
0.931312 -0.0123814 0.0 
0.605138 0.0331812 0.0 
0.981821 -0.00094754 0.0 
0.977271 -0.000100014 0.0 
1.07394 0.100298 0.0 
1.00747 -0.00266815 0.0 
1.07272 0.0540127 0.0 
1.00523 0.00210497 0.0 
1.00514 -0.0030126 0.0 
0.0606081 -0.012061 0.0 
0.979683 -0.0925082 0.0 
1.08802 0.0648963 0.0 
0.00105496 3.00443e-05 0.0 
1.00369 -0.000251468 0.0 
1.00726 0.00115629 0.0 
0.783381 -0.0544847 0.0 
0.470262 0.0104968 0.0 
1.27147e-06 -3.65313e-07 0.0 
0.147344 -0.0185183 0.0 
0.423067 0.00216393 0.0 
1.00513 -0.000269383 0.0 
0.69318 -0.0396029 0.0 
0.999927 0.000701609 0.0 
1.00246 0.00140922 0.0 
0.000222038 1.0261e-05 0.0 
-3.5466e-49 -2.41399e-50 0.0 
1.00816 0.00223272 0.0 
0.210893 -0.00844026 0.0 
0.887168 0.0121142 0.0 
-4.37488e-130 -1.74955e-130 0.0 
0.279731 -0.17436 0.0 
1.0084 0.000758286 0.0 
1.0095 -0.00246056 0.0 
1.49668e-84 3.61787e-87 0.0 
0.691555 -0.012941 0.0 
1.00505 0.00114233 0.0 
0.200107 0.00535726 0.0 
1.00348 -0.0130052 0.0 
0.999458 0.00104552 0.0 
0.0445307 -0.00484977 0.0 
0.208939 -0.0195299 0.0 
0.0923631 -0.00919598 0.0 
1.00657 0.00163734 0.0 
0.999889 -0.000144783 0.0 
0 0 0.0 
0.930964 -0.339002 0.0 
0.592162 -0.0565407 0.0 
1.01373 0.0016588 0.0 
0.882494 -0.0377017 0.0 
0 0 0.0 
0.055213 -0.00741279 0.0 
0.896006 -0.385198 0.0 
0.196978 -0.0210588 0.0 
0.0125112 -0.00162058 0.0 
-5.18351e-254 1.96317e-255 0.0 
0.585696 -0.00185232 0.0 
1.00693 0.00110432 0.0 
1.00561 7.13633e-05 0.0 
0.0113948 1.03977e-05 0.0 
0.0313871 0.00121932 0.0 
0.245216 -0.00590673 0.0 
0.0035089 -0.000244642 0.0 
1.03317 -0.000818128 0.0 
0.999813 -0.000251762 0.0 
1.00889 0.000768204 0.0 
0.997463 0.00676651 0.0 
1.00725 0.000210789 0.0 
0.506385 -0.0405895 0.0 
0.0196636 -0.00479901 0.0 
0.963978 -0.325104 0.0 
0.950641 0.026815 0.0 
1.00142 -0.000605418 0.0 
0.460646 0.0137311 0.0 
0 0 0.0 
2.07817e-05 1.4999e-06 0.0 
0.951925 0.0618642 0.0 
0.298619 0.027303 0.0 
1.00206 0.000977998 0.0 
0.969726 -0.0816862 0.0 
1.06524 0.0552677 0.0 
1.00137 0.062978 0.0 
0.981812 -0.0149301 0.0 
1.00001 2.16779e-05 0.0 
0.379845 0.00109498 0.0 
0 0 0.0 
0.0260613 -0.0043871 0.0 
1.00705 -0.00246897 0.0 
1e-307 1e-307 0.0 
0.361021 -0.149556 0.0 
0.887318 -0.218227 0.0 
0.999259 -0.00158964 0.0 
1.00615 -0.000190373 0.0 
1.00405 0 0.0 
0.996421 -0.0643317 0.0 
0.999508 -0.000226205 0.0 
1.09176 0.0563058 0.0 
0.950353 0.028203 0.0 
3.53506e-289 8.54158e-291 0.0 
1.00576 0.000999724 0.0 
0.977631 0.252347 0.0 
0.816754 0.211192 0.0 
1.23241e-13 4.29417e-14 0.0 
0.460878 0.00138509 0.0 
1.04494 0.211566 0.0 
0.822623 0.0171407 0.0 
0 0 0.0 
1.00003 0.000334004 0.0 
0.18884 0.00514364 0.0 
0.962117 0.273319 0.0 
0.99759 0.00170512 0.0 
0.954795 0.0859297 0.0 
0.804827 0.205432 0.0 
0.787405 0.217401 0.0 
0.0578928 -0.018267 0.0 
-8.26431e-254 -6.01244e-256 0.0 
1.00104 -0.00422516 0.0 
1.00041 0 0.0 
0.675404 -0.0142005 0.0 
1.00103 -0.000758434 0.0 
1.00425 -0.00306184 0.0 
1.0023 0.00585322 0.0 
1.0027 0 0.0 
1.01019 0.0239751 0.0 
0 0 0.0 
1.00419 0.00283219 0.0 
0.998495 -0.00207508 0.0 
0.999565 0.00177101 0.0 
1.00242 -0.00155032 0.0 
1.00526 0 0.0 
0.950767 -0.258894 0.0 
1.00239 0.00249125 0.0 
4.50547e-08 -3.72553e-09 0.0 
1.09567 0.0881891 0.0 
0.0282528 -0.00391179 0.0 
0.00981824 -0.000961833 0.0 
1.00124 -0.000746914 0.0 
1.00685 0.00036128 0.0 
0.190707 0.00511542 0.0 
1.00013 -0.000180692 0.0 
0.35905 0.00839963 0.0 
0.965914 -0.189359 0.0 
0.00826409 0.000259084 0.0 
0.218544 0.00531721 0.0 
1.00534 -0.000553344 0.0 
1.00174 0.00157352 0.0 
0.999187 0.000267275 0.0 
1.00533 -0.000189472 0.0 
1 -0.000191807 0.0 
0.970458 0.0980225 0.0 
1.02141 -0.244635 0.0 
1.02385e-05 -1.25742e-06 0.0 
4.25214e-07 -1.04257e-08 0.0 
0.305975 0.0281714 0.0 
0.0804782 0.0456655 0.0 
0.170236 -0.0202799 0.0 
0.747494 -0.0127472 0.0 
0 0 0.0 
0.421142 -0.00711016 0.0 
0.999354 -0.000496427 0.0 
1.00128 0 0.0 
0 0 0.0 
0.000163961 1.43644e-05 0.0 
1.00319 0.0021952 0.0 
1.0042 0.000955766 0.0 
0.211993 -0.0204803 0.0 
0 0 0.0 
0.878586 -0.367521 0.0 
1.00506 0.00174997 0.0 
-1.40987e-46 -1.81322e-47 0.0 
1.01045 0.0196231 0.0 
0.899739 -0.208165 0.0 
0.910693 -0.0221195 0.0 
0.927827 0.0291362 0.0 
0 0 0.0 
0.121236 -0.0173589 0.0 
0.531334 0.0130832 0.0 
1.00752 -0.00487262 0.0 
0.382186 0.0176481 0.0 
0.995169 -0.302234 0.0 
0.259325 -0.0280392 0.0 
0 0 0.0 
0.99996 0.000203739 0.0 
0.992584 -0.00420487 0.0 
0.99929 -0.0272555 0.0 
0 0 0.0 
0 0 0.0 
0.995118 -0.0388937 0.0 
0.22965 -0.0145073 0.0 
0.313862 -0.00156155 0.0 
0.97938 -0.0465686 0.0 
1.00645 -0.0038339 0.0 
1.00654 -0.280679 0.0 
1.00455 0 0.0 
0.253467 -0.17554 0.0 
1.02576 -0.00787549 0.0 
0.41308 -0.0165782 0.0 
1.00578 -9.12067e-05 0.0 
0.820902 -0.0215334 0.0 
0.805264 -0.4136 0.0 
0.148158 -0.0237391 0.0 
0.892778 -0.319043 0.0 
1.00275 0.00232119 0.0 
1.00686 -0.0015057 0.0 
0.31269 -0.112732 0.0 
0.380663 0.0160668 0.0 
0.822254 -0.0217871 0.0 
0.0286994 0.00243158 0.0 
0.524767 0.0345669 0.0 
0.996432 -0.00109815 0.0 
0 0 0.0 
1.00059 0.00041813 0.0 
0 0 0.0 
1.02696 -0.037634 0.0 
1.00115 0.000820894 0.0 
1.00095 -0.000134545 0.0 
1.00004 -0.000233266 0.0 
1.03668 -0.252736 0.0 
0.0606532 -0.00301453 0.0 
1.00823 -0.00225634 0.0 
1.00125 -0.00402388 0.0 
0.603867 -0.047214 0.0 
0.183199 -0.0237054 0.0 
1.0317 0.235721 0.0 
0.234919 -0.000725817 0.0 
1.00012 -0.000550299 0.0 
1.00045 -0.000968201 0.0 
0.753527 0.0256936 0.0 
0.74069 -0.0365439 0.0 
0.154286 -0.0292906 0.0 
1.02902 -0.0559322 0.0 
1.07134 0.153622 0.0 
1.00464 0.00190175 0.0 
0.932004 0.0635787 0.0 
1.00739 -0.00179912 0.0 
0.348555 -0.00496092 0.0 
0.977608 0.0158141 0.0 
0.500046 -0.352612 0.0 
0 0 0.0 
0.0202146 0.000929577 0.0 
0.0428385 -0.00222721 0.0 
0.997004 0.0235951 0.0 
1.00627 -0.00027401 0.0 
0.99931 -0.000912674 0.0 
0.162545 0.00412556 0.0 
0.992745 0.0587495 0.0 
1.00541 -0.00498339 0.0 
1.0002 -0.0005709 0.0 
1.01003 -0.00303389 0.0 
1.00017 0.00210958 0.0 
0.512301 -0.0372484 0.0 
0.980808 0.00243935 0.0 
0.00475983 -0.000402626 0.0 
0.34329 0.0105202 0.0 
0.0343634 0.0129901 0.0 
0.713699 0.0219219 0.0 
1.00041 -0.00257741 0.0 
1.00306 -0.000956333 0.0 
1.00661 0.00125945 0.0 
1.02504 0.0133644 0.0 
1.00629 -2.37142e-05 0.0 
0.999969 -3.84881e-05 0.0 
0.176183 -0.0248642 0.0 
1.00512 0.000501442 0.0 
0.211492 0.00587834 0.0 
0.266399 -0.029792 0.0 
1.0075 -0.00246692 0.0 
0.993619 0.00668702 0.0 
0.000668126 2.85556e-05 0.0 
0.0293392 0.000798988 0.0 
0.0074056 0.000797933 0.0 
0.0378153 -0.00627602 0.0 
1.00192 -0.00043075 0.0 
0.999992 2.93146e-05 0.0 
1.00436 -0.000227479 0.0 
0.771731 -0.0283068 0.0 
1.00298 0.00352357 0.0 
0.999013 -0.000407673 0.0 
1.00494 -0.000139507 0.0 
0.0160504 -0.0016837 0.0 
0.944624 0.00104784 0.0 
0.504181 0.014048 0.0 
0.996281 0.023393 0.0 
1.52908e-176 -1.10067e-177 0.0 
0.70681 -0.0458903 0.0 
0.190827 0.0129977 0.0 
0.0430689 -0.00365045 0.0 
0.980871 0.00552327 0.0 
0.0643895 0.00271536 0.0 
0.330064 0.00563439 0.0 
0.945105 -0.033607 0.0 
1.0055 -2.06677e-05 0.0 
0.78894 -0.0522195 0.0 
1.00001 -0.000168648 0.0 
0.959762 -0.0248639 0.0 
0.999062 -0.00062518 0.0 
0.121105 -0.0122754 0.0 
1.00537 0 0.0 
1.0071 -0.000687878 0.0 
0.875682 -0.077072 0.0 
1.01119 -0.00406248 0.0 
1.01537 0.0208679 0.0 
8.2158e-05 5.43736e-07 0.0 
1.00115 0.00171002 0.0 
1.00057 0.00143903 0.0 
1.00124 0.00033873 0.0 
0.866907 -0.050512 0.0 
0.0114762 0.000878817 0.0 
0 0 0.0 
0.408068 0.00598007 0.0 
0.182402 0.0616844 0.0 
1.00769 -0.00424067 0.0 
0.785114 0.342773 0.0 
0.0209675 0.000788169 0.0 
0.949321 -0.00433367 0.0 
1e-307 1e-307 0.0 
0.985044 0.0444166 0.0 
0.10355 -0.000339753 0.0 
0.0370738 0.000185599 0.0 
1.00467 0.000873174 0.0 
0.544364 0.0100893 0.0 
0.0369437 0.00163411 0.0 
-9.57268e-50 1.98392e-51 0.0 
1.02108 0.000797647 0.0 
0 0 0.0 
1.01709 0.0172829 0.0 
1.00548 9.39258e-06 0.0 
-1.85006e-236 -5.40833e-237 0.0 
1.00295 -0.00812348 0.0 
1.00606 0.00232599 0.0 
0.610601 0.00353475 0.0 
0.856166 0.0116591 0.0 
1.00603 0.00149138 0.0 
0.0185829 0.00160434 0.0 
1.0054 0.00231827 0.0 
1.0055 1.36187e-05 0.0 
0.0410206 0.00169301 0.0 
0.918413 -0.00446176 0.0 
1.00439 -0.00127864 0.0 
1.00103 0.000519799 0.0 
1.00151 0 0.0 
1.41771e-83 5.42311e-85 0.0 
1.00549 0.00210023 0.0 
0.999868 -4.25493e-05 0.0 
0.406727 -0.0153808 0.0 
1 0.000128432 0.0 
1.0188 0.220707 0.0 
0.803169 0.319127 0.0 
0.997813 -0.00365217 0.0 
0.148371 -0.00220554 0.0 
0.00949513 0.000116723 0.0 
1.00275 0.000589887 0.0 
0.0273246 0.00151695 0.0 
0.027228 0.000922624 0.0 
0.254592 -0.049431 0.0 
0.0508961 -0.00123157 0.0 
1.00151 0.00386821 0.0 
1.02724 -0.100948 0.0 
0.224004 -0.00573252 0.0 
0.999341 0.000887402 0.0 
0.692941 0.001006 0.0 
1.00011 0.000800597 0.0 
1.00701 -0.00172258 0.0 
0.532727 0.00238383 0.0 
0.578834 0.0717508 0.0 
0.22806 0.0227951 0.0 
9.08664e-06 -1.32686e-06 0.0 
1.00468 -0.00117088 0.0 
0.962386 -0.283673 0.0 
1.00826 0.00503305 0.0 
0.924888 -0.305621 0.0 
0.99732 -0.000781562 0.0 
0.999359 0.000721179 0.0 
1.00654 0.000547608 0.0 
0 0 0.0 
1.00002 -0.000182797 0.0 
1.00375 0.000341917 0.0 
0.994737 -0.0164482 0.0 
1.00486 0.00300625 0.0 
0.014913 0.000828497 0.0 
1.00637 -0.000931129 0.0 
1.0017 0.00170146 0.0 
1.00448 -0.00561354 0.0 
1.00024 0.00035576 0.0 
1.00831 0.00128292 0.0 
1.00006 -0.000441564 0.0 
1.0033 -0.000655172 0.0 
1.01013 0.00409863 0.0 
0.884223 0.0401711 0.0 
1.01821 0.00998395 0.0 
0 0 0.0 
0.636439 0.0146091 0.0 
1 3.79718e-05 0.0 
0.705249 0.0907107 0.0 
1.00271 0.000187939 0.0 
1.00165 0.00304208 0.0 
0.942478 -0.0379039 0.0 
0.07933 -0.0099364 0.0 
0.844726 -0.023684 0.0 
1.00546 -0.00882231 0.0 
0.999882 0.0011845 0.0 
1.00488 0.00112481 0.0 
1.00897 0.00216946 0.0 
1.00724 0.000772745 0.0 
1.00003 0.000303491 0.0 
1.00477 0.00212351 0.0 
1.00729 -0.00230045 0.0 
1.00688 -0.000402819 0.0 
1.0022 0.000772702 0.0 
0.99373 -0.0089199 0.0 
1.00814 -0.00711147 0.0 
1.00522 -0.000139318 0.0 
1.00047 0.205987 0.0 
1.12168 0.0823529 0.0 
0.998816 -0.000591351 0.0 
0.970525 0.0433992 0.0 
1.0013 0.0053905 0.0 
0.384691 -0.0108466 0.0 
1.001 0.0033849 0.0 
0.237496 -0.0246035 0.0 
1.00707 0.000935005 0.0 
0.990518 -0.00343039 0.0 
0.136951 0.0040567 0.0 
0.0263003 0.00153108 0.0 
0 0 0.0 
0.0733021 -0.0289905 0.0 
1.03072 -0.0259439 0.0 
0.635312 0.034104 0.0 
1.00601 0.00116949 0.0 
0.332406 -0.00587145 0.0 
1.003 0.000349501 0.0 
0.166978 0.0105203 0.0 
0.0158501 -0.00266901 0.0 
0.970534 -0.0277856 0.0 
0.203936 0.0173846 0.0 
3.81735e-167 3.30513e-168 0.0 
0.998833 -0.000884997 0.0 
0.0664004 0.00143732 0.0 
0.453074 -0.307392 0.0 
1.00392 0.00024749 0.0 
1.00924 -0.00362507 0.0 
0.285344 -0.04109 0.0 
1.0076 0.00120961 0.0 
0.00826311 -0.00172881 0.0 
-1.3652e-249 1.64592e-250 0.0 
0.99536 -0.00736424 0.0 
0.256358 0.0226225 0.0 
0.869351 -0.0165678 0.0 
0.862593 0.0304831 0.0 
0.999938 -0.000167517 0.0 
0.702666 -0.00492826 0.0 
0.0307793 -0.0168694 0.0 
0.140759 0.0292084 0.0 
0.213423 0.00749196 0.0 
0.913222 -0.0030687 0.0 
1.00078 0.00125325 0.0 
0.999643 -0.000325319 0.0 
0.000196087 -4.90406e-05 0.0 
0.998605 0.00135733 0.0 
0.998917 0.00020852 0.0 
1.00731 0.000944869 0.0 
1.00603 -0.0450192 0.0 
1.00565 0.00301673 0.0 
0.13076 -0.0175356 0.0 
1.03039 0.0128396 0.0 
1.005 -0.00240961 0.0 
0.962419 -0.0565291 0.0 
0.998903 0.00447168 0.0 
1.00086 0.00137781 0.0 
1.01198 0.0014445 0.0 
1.00172 -0.000499822 0.0 
0.818131 -0.00361583 0.0 
1.01333 -0.00559702 0.0 
0.961839 -0.0446717 0.0 
1.00565 -0.000116045 0.0 
1.00465 -0.00277278 0.0 
0.271187 -0.0226399 0.0 
0.0076036 6.43463e-05 0.0 
0.999492 -0.000350228 0.0 
1 0.000231593 0.0 
0.950697 0.00313166 0.0 
1.00166 0.000227379 0.0 
0.0589048 -0.00349135 0.0 
0.128479 0.0349577 0.0 
0.0670276 -0.0026455 0.0 
0.00123237 1.81875e-05 0.0 
0.920099 -0.0251836 0.0 
1 -0.000945707 0.0 
0.815504 -0.026615 0.0 
0.788227 0.0329479 0.0 
0.0146957 0.000823313 0.0 
1.00477 0.00149338 0.0 
1.00059 -0.00396237 0.0 
1.00437 -0.00269436 0.0 
0.955722 0.028199 0.0 
1.00369 0.00328142 0.0 
1.00725 -0.00109791 0.0 
1.00616 0.00104479 0.0 
0.00220461 -0.000617842 0.0 
0.999498 -5.32672e-05 0.0 
0.813265 0.0141829 0.0 
0.999977 7.42256e-06 0.0 
1.00181 0 0.0 
0.999169 0.00243052 0.0 
0.00698225 -0.00119564 0.0 
1.00848 0.00166702 0.0 
0.324689 0.00952034 0.0 
1.00001 -0.000258802 0.0 
0.723599 -0.0308821 0.0 
0.882878 0.241791 0.0 
0.86179 0.0313777 0.0 
1.00306 0.000848222 0.0 
1.00756 0.00100776 0.0 
1.00871 1.48459e-06 0.0 
1.07175 0.0777553 0.0 
1.00045 -0.00130223 0.0 
0.214329 0.068333 0.0 
1.0068 0.00100195 0.0 
1.00554 0.00993048 0.0 
1.00596 0.00164082 0.0 
0.402525 0.00503119 0.0 
1.01197 -0.0609194 0.0 
0.432216 0.00776807 0.0 
0 0 0.0 
0.998608 0.000316205 0.0 
1.00045 -0.00584425 0.0 
1.00553 3.68479e-05 0.0 
0.999737 -0.00161862 0.0 
1.00551 -0.000219396 0.0 
0.999394 -0.000415183 0.0 
1.0002 -0.00151396 0.0 
0.181938 0.000379829 0.0 
1.00454 0.00205168 0.0 
0.892493 -0.0517465 0.0 
1.001 0.00119211 0.0 
1.00031 -0.00175416 0.0 
0.389107 0.00548029 0.0 
1.00223 -0.000506359 0.0 
1.12565 0.0856616 0.0 
0.000158146 1.55125e-06 0.0 
0.316817 0.0432675 0.0 
0.0105809 -0.00166039 0.0 
1.0001 -0.000671632 0.0 
1.0002 -0.000250385 0.0 
0.893768 0.0141234 0.0 
0.015139 0.000153186 0.0 
1.00008 -0.000687494 0.0 
0.834783 0.117661 0.0 
1.00172 -0.00060995 0.0 
0.927664 -0.164037 0.0 
1.005 0.0024958 0.0 
0.816574 0.126926 0.0 
0.755675 0.0119332 0.0 
0.274796 0.00412101 0.0 
0.023598 0.000936348 0.0 
0.417934 0.00200275 0.0 
0.15372 -0.039636 0.0 
0.999708 0.00504548 0.0 
0.434967 -0.00123706 0.0 
1.00788 -0.000360477 0.0 
1.00128 -0.00659602 0.0 
1.04013 -0.00263825 0.0 
1.00553 -0.000616826 0.0 
1.00021 -0.000709113 0.0 
1.00411 -0.00247385 0.0 
0.0826772 0.00589491 0.0 
1.0009 0.0168585 0.0 
0.0229735 0.00108176 0.0 
1.00725 0.00111464 0.0 
0.999756 -0.000588474 0.0 
1.00642 -0.00110986 0.0 
0.177657 -0.0196396 0.0 
1.01107 -0.00206286 0.0 
0.0550072 0.00289047 0.0 
0.334236 -0.0015812 0.0 
0.354332 -0.00176156 0.0 
1.00423 0.000660316 0.0 
0.036545 -0.00716539 0.0 
1.00645 0.000518126 0.0 
0.788106 0.141156 0.0 
1.00049 -0.00296459 0.0 
1.00574 -0.000496208 0.0 
1.00528 0.000733014 0.0 
0.0783943 0.0812164 0.0 
1.00706 0.00077525 0.0 
1.00007 -0.000221792 0.0 
0.34697 0.00100982 0.0 
1.00581 -0.00332666 0.0 
1.00677 0.00118865 0.0 
0.794658 -0.00125851 0.0 
0.999832 -0.00028272 0.0 
0.997681 0.00434448 0.0 
0.996424 -0.00723863 0.0 
1.00001 -0.000132713 0.0 
0 0 0.0 
0.0118741 -0.00216314 0.0 
0.64486 -0.0271411 0.0 
0.913629 -0.0159722 0.0 
1.00321 0.00218652 0.0 
1.1066 0.097515 0.0 
0 0 0.0 
0.99839 0.00188559 0.0 
0.999795 -0.000805541 0.0 
0.835997 -0.0515575 0.0 
1 -0.000253145 0.0 
0.323077 -0.234671 0.0 
0.390173 0.0865185 0.0 
1.35482e-15 1.84893e-16 0.0 
0.993594 -0.00479517 0.0 
1.00251 0.00991722 0.0 
1 0 0.0 
1.00079 0 0.0 
0.0125978 -0.00223282 0.0 
1.0059 0.00131665 0.0 
0.0114879 0.000786156 0.0 
1.0057 -0.00174747 0.0 
0 0 0.0 
1.0047 0.00205073 0.0 
0.300122 0.144528 0.0 
0.236358 0.00419601 0.0 
1.00596 0.00768714 0.0 
9.59147e-05 -1.27369e-05 0.0 
5.85811e-05 -6.80626e-06 0.0 
1.05572 0.0986974 0.0 
0.167724 0.0510357 0.0 
0.886349 -0.0551114 0.0 
0.015187 -0.0279976 0.0 
1.00312 0.000658231 0.0 
0 0 0.0 
0.0158702 -0.000814382 0.0 
0.0761946 -0.00136465 0.0 
0.0488333 -0.0030669 0.0 
0.915044 -0.37302 0.0 
0.0611078 -0.0132138 0.0 
0.999215 -0.00111238 0.0 
0.997519 0.0123267 0.0 
0.863951 0.1103 0.0 
0.417412 0.027498 0.0 
1.00111 0.00297931 0.0 
1.00326 -0.00308037 0.0 
0.246458 -0.0108439 0.0 
0.123258 0.0310581 0.0 
0.993449 -0.00233467 0.0 
1.00148 -0.000687946 0.0 
0.999764 0.00185075 0.0 
0.0503753 0.00319053 0.0 
1.00233 0.000132471 0.0 
0.706363 0.0133147 0.0 
1.00534 0 0.0 
0.883962 -0.020643 0.0 
1.00103 -0.00131816 0.0 
0.730193 -0.0167446 0.0 
1.00098 0.00172751 0.0 
0.0892045 0.00123231 0.0 
1.04072 0.0237861 0.0 
1.11697 0.0439745 0.0 
0.562413 -0.0357203 0.0 
1.00589 -0.000493876 0.0 
0.999122 0.000428122 0.0 
1.00692 0.0025761 0.0 
1.00606 -0.00245119 0.0 
0.032075 -0.00467693 0.0 
1.01246 0.0261045 0.0 
1.00327 -0.00127751 0.0 
0 0 0.0 
1.0118 -0.0136008 0.0 
0.998527 0.000623069 0.0 
1.00467 0.000682333 0.0 
9.18501e-06 1.84928e-08 0.0 
1.00328 0 0.0 
1.00453 0.000595718 0.0 
0.914993 0.0302943 0.0 
1.0054 9.27913e-05 0.0 
0.657195 0.0111184 0.0 
0.61248 -0.431366 0.0 
1.00538 -0.000913613 0.0 
0.40639 -0.0979331 0.0 