<VTKFile type="UnstructuredGrid" version="0.1" byte_order="LittleEndian">
  <UnstructuredGrid>
    <Piece NumberOfPoints="13633" NumberOfCells="27077">
      <Points>
        <DataArray type = "Float64" NumberOfComponents="3" format="ascii">
0 0 0.0 
14 0 0.0 
14 8 0.0 
0 8 0.0 
4.16401 4.15619 0.0 
4.09915 3.98413 0.0 
4.18812 3.97951 0.0 
4.01397 4.00232 0.0 
0.382322 2.91093 0.0 
4.07985 4.00973 0.0 
4.17281 4.10264 0.0 
2.85027 3.42189 0.0 
4.07057 3.9639 0.0 
4.53824 7.43039 0.0 
4.33046 4.0406 0.0 
3.98741 4.04054 0.0 
3.98768 4.02653 0.0 
4.5493 4.03647 0.0 
4.05523 4.11066 0.0 
4.21482 3.98867 0.0 
8.79181 7.69132 0.0 
4.49551 3.9967 0.0 
12.8262 0.365959 0.0 
4.67405 4.10923 0.0 
4.1789 4.0308 0.0 
4.80484 4.03022 0.0 
4.61584 4.00791 0.0 
4.10568 3.98493 0.0 
12.1265 0 0.0 
4.47348 4.03363 0.0 
4.14554 3.98607 0.0 
4.42876 4.0369 0.0 
4.58866 4.06561 0.0 
4.13489 4.05432 0.0 
0 1.05164 0.0 
4.4655 3.99777 0.0 
4.2424 3.9795 0.0 
3.94301 4.05474 0.0 
11.3713 7.83957 0.0 
0 3.36284 0.0 
4.93697 3.93496 0.0 
4.16823 3.98695 0.0 
9.9952 4.76045 0.0 
4.51121 4.02141 0.0 
10.1734 4.4195 0.0 
4.0273 4.01367 0.0 
4.04278 3.98507 0.0 
4.00011 4.02449 0.0 
4.62342 4.01415 0.0 
4.41951 3.99457 0.0 
5.17517 4.1161 0.0 
5.18362 3.76368 0.0 
4.25346 4.05135 0.0 
4.49914 3.99745 0.0 
4.12607 4.05951 0.0 
4.14295 4.04251 0.0 
4.2483 4.03635 0.0 
4.0955 3.94899 0.0 
4.03444 4.04627 0.0 
4.00163 4.02959 0.0 
4.02005 3.99731 0.0 
5.23503 8 0.0 
4.30375 3.97965 0.0 
4.06762 3.97376 0.0 
2.12525 0 0.0 
5.35828 4.09214 0.0 
4.51733 3.99893 0.0 
4.2321 4.07437 0.0 
4.14293 3.98719 0.0 
4.45118 4.02307 0.0 
4.00079 4.008 0.0 
4.43318 4.48157 0.0 
4.06521 4.00005 0.0 
3.63162 3.86571 0.0 
4.00498 4.00961 0.0 
4.17996 4.09143 0.0 
4.04672 4.0202 0.0 
4.94501 3.90266 0.0 
4.10992 3.98402 0.0 
4.54772 3.97659 0.0 
3.96947 4.02134 0.0 
8.40952 2.0809 0.0 
4.66537 4.02952 0.0 
3.96297 3.96024 0.0 
4.21254 3.97074 0.0 
4.15932 4.03394 0.0 
7.6928 3.03492 0.0 
4.11692 3.94964 0.0 
4.57278 4.01593 0.0 
3.95785 3.95439 0.0 
4.09052 3.99336 0.0 
4.02972 4.04518 0.0 
7.97633 2.05223 0.0 
3.97141 4.03046 0.0 
4.01703 7.79668 0.0 
3.97561 4.03322 0.0 
3.97816 4.02179 0.0 
4.04633 4.03304 0.0 
3.96767 4.02507 0.0 
4.53971 3.97638 0.0 
4.04521 4.34779 0.0 
3.94265 3.95401 0.0 
4.54225 3.97864 0.0 
4.10205 3.96084 0.0 
1.03284 2.15008 0.0 
4.54991 3.98013 0.0 
4.52336 3.97405 0.0 
4.53968 3.92793 0.0 
4.73521 7.52615 0.0 
4.14521 4.17522 0.0 
4.32637 4.10272 0.0 
5.2844 3.91484 0.0 
4.34958 4.01696 0.0 
4.21259 3.97823 0.0 
5.45662 5.22808 0.0 
4.06171 3.97809 0.0 
3.99732 3.99732 0.0 
4.11581 4.05249 0.0 
9.79388 3.74028 0.0 
5.25265 4.08074 0.0 
4.05958 4.04239 0.0 
3.77108 4.26034 0.0 
10.4908 7.41058 0.0 
12.529 6.19703 0.0 
0 5.96411 0.0 
7.15438 4.87816 0.0 
4.01115 3.99128 0.0 
4.36623 4.04051 0.0 
6.37297 2.73989 0.0 
6.50541 6.65271 0.0 
4.0914 3.96216 0.0 
4.53944 3.99839 0.0 
5.20281 3.96498 0.0 
4.46248 4.02131 0.0 
4.22297 4.24054 0.0 
4.65935 4.04515 0.0 
12.6474 3.41509 0.0 
4.05312 3.99197 0.0 
13.7435 8 0.0 
4.11702 4.02719 0.0 
6.67367 0 0.0 
4.00932 4.01975 0.0 
6.82471 4.26136 0.0 
4.20354 4.03712 0.0 
4.42267 4.02749 0.0 
4.09466 4.03941 0.0 
4.05908 4.0108 0.0 
4.01354 4.01478 0.0 
5.36236 4.11438 0.0 
4.41516 4.02712 0.0 
4.51345 3.99712 0.0 
6.22735 7.50315 0.0 
11.5635 4.20421 0.0 
4.73869 4.07041 0.0 
14 3.6095 0.0 
4.20997 0.181458 0.0 
8.95603 7.57132 0.0 
7.7278 7.63087 0.0 
4.32046 1.78584 0.0 
3.98122 4.01031 0.0 
4.10933 3.98599 0.0 
11.3933 4.0761 0.0 
4.68705 4.01621 0.0 
4.51911 4.03105 0.0 
4.32956 3.99287 0.0 
4.94157 3.98326 0.0 
4.42687 4.02603 0.0 
4.54778 4.01674 0.0 
4.08927 3.9549 0.0 
4.22147 4.0961 0.0 
4.02204 4.01739 0.0 
4.65153 4.02457 0.0 
0.762019 5.13086 0.0 
4.09428 3.96323 0.0 
4.35433 4.0376 0.0 
3.99474 4.00051 0.0 
4.37571 4.03919 0.0 
4.18332 3.96996 0.0 
4.12911 4.03938 0.0 
4.8618 5.24937 0.0 
3.90674 3.97638 0.0 
12.0372 1.49526 0.0 
6.54955 4.58836 0.0 
4.41297 3.99709 0.0 
10.4619 3.53679 0.0 
4.20039 3.93083 0.0 
5.11537 3.91723 0.0 
5.29253 4.05781 0.0 
5.52033 4.01046 0.0 
6.38052 3.13775 0.0 
5.9291 5.15993 0.0 
4.2331 3.98897 0.0 
3.98471 3.78204 0.0 
9.4176 1.73395 0.0 
4.20327 3.97947 0.0 
5.24537 4.1668 0.0 
4.51222 4.06035 0.0 
4.36411 4.03306 0.0 
4.1403 4.03691 0.0 
4.47647 4.01753 0.0 
8.35832 2.9685 0.0 
13.4699 7.45697 0.0 
2.92109 4.80681 0.0 
4.01229 3.97705 0.0 
4.06076 3.97364 0.0 
6.40969 2.27914 0.0 
13.4868 6.98366 0.0 
4.09808 4.03387 0.0 
4.47647 4.00778 0.0 
4.00577 3.97873 0.0 
4.46979 4.03982 0.0 
4.72674 4.01395 0.0 
0.199854 7.79206 0.0 
4.58468 4.50098 0.0 
7.62224 2.88267 0.0 
7.22419 0.703495 0.0 
4.52947 3.99713 0.0 
4.51324 3.98636 0.0 
3.93594 4.15836 0.0 
4.00988 3.97037 0.0 
2.61514 0.506135 0.0 
12.0185 5.47289 0.0 
5.8599 3.0813 0.0 
4.88569 3.98105 0.0 
3.96816 4.17194 0.0 
4.35415 4.03489 0.0 
4.55037 4.00822 0.0 
3.59974 3.7226 0.0 
4.6103 3.91602 0.0 
4.90839 4.00372 0.0 
4.62528 3.9827 0.0 
4.11575 4.03408 0.0 
7.58471 5.24477 0.0 
4.20274 4.07949 0.0 
4.52681 4.01385 0.0 
12.5015 1.14918 0.0 
4.09797 3.95385 0.0 
4.23052 4.09368 0.0 
4.20868 4.08388 0.0 
4.00964 3.98933 0.0 
6.26265 7.14539 0.0 
4.70958 7.08222 0.0 
4.21025 4.03415 0.0 
4.05731 4.02647 0.0 
13.8261 5.94601 0.0 
4.2305 4.04338 0.0 
4.05886 4.03208 0.0 
3.98799 3.95955 0.0 
4.19563 4.09364 0.0 
4.50389 4.01169 0.0 
8.82235 8 0.0 
1.60222 4.99327 0.0 
4.0699 4.08975 0.0 
4.2355 4.09935 0.0 
4.69512 3.9114 0.0 
4.06437 4.05592 0.0 
4.98619 3.93198 0.0 
13.0519 3.93435 0.0 
4.06329 4.04721 0.0 
10.4928 5.29986 0.0 
4.18805 3.96826 0.0 
4.20056 3.98764 0.0 
4.05396 4.05241 0.0 
3.95542 4.79879 0.0 
0.417479 6.31883 0.0 
4.29389 4.0432 0.0 
1.2153 8 0.0 
3.10914 5.59567 0.0 
4.60418 3.96374 0.0 
3.98977 4.04663 0.0 
3.99153 4.04254 0.0 
4.57553 4.01147 0.0 
4.1039 3.99411 0.0 
3.31161 1.01031 0.0 
4.20754 3.97865 0.0 
3.97296 4.00674 0.0 
11.3714 7.19716 0.0 
9.192 5.81999 0.0 
11.1865 7.25481 0.0 
3.53429 0 0.0 
4.67134 3.89044 0.0 
4.08953 4.02996 0.0 
11.016 2.69137 0.0 
2.30378 3.03595 0.0 
4.29931 3.9925 0.0 
4.37146 4.03229 0.0 
7.40997 8 0.0 
4.02321 3.97317 0.0 
2.86414 6.59491 0.0 
4.2532 4.04441 0.0 
4.51539 3.99831 0.0 
4.00241 3.93804 0.0 
5.01113 4.1034 0.0 
4.00813 4.01182 0.0 
6.78993 2.13526 0.0 
4.21034 3.97999 0.0 
0.846754 0.565038 0.0 
4.4185 3.97288 0.0 
0.384822 4.35157 0.0 
10.2824 1.17531 0.0 
4.05099 4.00074 0.0 
7.59973 7.22298 0.0 
12.6277 1.80732 0.0 
14 4.58149 0.0 
5.85073 0.410811 0.0 
13.0902 7.46595 0.0 
4.14091 4.04918 0.0 
4.02912 3.96643 0.0 
4.00773 4.00001 0.0 
4.63876 4.06434 0.0 
4.68458 4.02212 0.0 
4.45455 2.45817 0.0 
4.51225 4.03393 0.0 
3.96066 4.00697 0.0 
4.18807 3.98662 0.0 
4.96395 4.01931 0.0 
13.1661 5.68046 0.0 
13.7895 0 0.0 
4.10795 4.02897 0.0 
4.39244 4.04048 0.0 
11.4357 2.10385 0.0 
4.34918 3.99382 0.0 
6.49425 0.938237 0.0 
4.00791 4.0033 0.0 
4.0088 3.9805 0.0 
9.75515 2.36072 0.0 
4.53643 4.02646 0.0 
4.76297 3.98343 0.0 
4.02947 3.97325 0.0 
4.96929 3.97464 0.0 
4.6454 3.91884 0.0 
4.01129 4.00596 0.0 
4.53809 4.03291 0.0 
3.88473 3.53304 0.0 
3.89408 4.12152 0.0 
8.48287 5.04599 0.0 
4.01755 3.97046 0.0 
4.52386 4.04096 0.0 
5.25032 1.89548 0.0 
4.00414 3.99309 0.0 
6.42419 4.18044 0.0 
4.7797 4.48789 0.0 
4.05373 4.0206 0.0 
4.0593 4.0207 0.0 
11.5794 3.98449 0.0 
4.79265 3.99229 0.0 
4.11868 3.97589 0.0 
4.15516 3.94365 0.0 
4.71924 4.00853 0.0 
4.01683 3.96357 0.0 
8.32777 8 0.0 
4.84915 4.03246 0.0 
1.48233 7.50025 0.0 
4.22553 4.07149 0.0 
13.611 1.35207 0.0 
5.06461 4.08435 0.0 
4.00437 3.9841 0.0 
4.55145 4.028 0.0 
4.0134 3.97877 0.0 
3.03193 6.72582 0.0 
3.10089 2.25184 0.0 
4.01079 3.9893 0.0 
4.19227 4.0555 0.0 
4.36156 4.08272 0.0 
1.06432 1.49826 0.0 
4.3242 3.99216 0.0 
2.49698 3.5985 0.0 
4.20001 4.03326 0.0 
4.15361 3.98721 0.0 
4.21639 4.03358 0.0 
4.26302 3.98938 0.0 
4.01425 3.98947 0.0 
11.5792 7.84461 0.0 
0.551344 1.2516 0.0 
4.02575 3.96118 0.0 
5.81061 5.00157 0.0 
6.49849 5.21743 0.0 
4.51761 3.98492 0.0 
4.06054 4.0784 0.0 
9.00321 4.86505 0.0 
1.21408 1.2833 0.0 
6.98728 5.60342 0.0 
3.69156 4.5439 0.0 
11.8351 6.74811 0.0 
4.17833 3.98715 0.0 
4.1127 3.96242 0.0 
3.58175 4.19837 0.0 
4.15116 3.93854 0.0 
4.13176 4.07898 0.0 
10.2186 2.28825 0.0 
4.24923 3.98934 0.0 
4.50339 3.9989 0.0 
4.85957 4.01386 0.0 
3.92863 4.29273 0.0 
4.00279 3.99128 0.0 
4.05385 4.00986 0.0 
4.43094 4.03295 0.0 
13.1818 2.98063 0.0 
4.47088 4.06221 0.0 
6.32476 7.00417 0.0 
12.5996 5.63737 0.0 
4.64409 4.00438 0.0 
4.57455 4.08212 0.0 
4.56283 3.99857 0.0 
4.52587 4.00789 0.0 
4.30987 3.99252 0.0 
9.69483 7.24214 0.0 
6.52781 1.51786 0.0 
8.91842 0.967714 0.0 
4.84809 6.69312 0.0 
4.34939 4.7127 0.0 
4.93904 4.11785 0.0 
3.96806 4.01296 0.0 
11.0968 5.75296 0.0 
11.5618 2.8637 0.0 
4.09715 3.98531 0.0 
0.348252 3.38746 0.0 
2.13112 6.6549 0.0 
13.1592 5.25121 0.0 
4.5467 4.03146 0.0 
8.09965 4.1488 0.0 
10.6153 7.62373 0.0 
4.53595 4.04072 0.0 
7.20657 5.05296 0.0 
3.05391 4.40989 0.0 
4.38666 4.07986 0.0 
3.90498 4.0501 0.0 
4.90954 3.97583 0.0 
4.53323 4.0151 0.0 
3.45171 4.08826 0.0 
0.198711 3.79297 0.0 
4.72583 0.194576 0.0 
4.30783 4.05952 0.0 
6.64238 0.26606 0.0 
4.11011 3.98531 0.0 
5.30927 0.171783 0.0 
12.9422 5.39238 0.0 
3.77134 4.0081 0.0 
4.21566 3.97354 0.0 
4.73668 3.89169 0.0 
4.04877 3.98924 0.0 
3.96886 4.00175 0.0 
4.64006 3.99672 0.0 
4.36261 4.03666 0.0 
4.25199 3.98725 0.0 
3.93277 3.96019 0.0 
4.55639 3.9994 0.0 
4.82507 4.1106 0.0 
4.62068 4.09144 0.0 
4.75101 4.81154 0.0 
0.347962 1.57688 0.0 
4.48471 4.01764 0.0 
4.03302 4.01898 0.0 
4.27555 3.95855 0.0 
7.78364 0 0.0 
6.32437 6.34013 0.0 
9.70352 1.23095 0.0 
5.62592 4.80931 0.0 
4.7383 3.87602 0.0 
3.84724 3.99971 0.0 
3.9183 4.01934 0.0 
1.64832 6.43608 0.0 
13.7604 0.5867 0.0 
4.04131 4.0269 0.0 
4.2134 4.02988 0.0 
4.16979 4.03888 0.0 
4.25841 3.96952 0.0 
4.03014 4.02376 0.0 
6.20333 4.3105 0.0 
4.0104 4.03331 0.0 
4.27099 3.99069 0.0 
3.84334 4.30632 0.0 
4.82491 3.98915 0.0 
5.06041 3.97688 0.0 
4.19624 4.04731 0.0 
[...]
<PointData>
  <DataArray type = "Float64" Name="Vitesse" NumberOfComponents="3" format="ascii">
1 0 0.0 
1.00129 0 0.0 
0.99985 0 0.0 
1 0 0.0 
1.09076 0.0996391 0.0 
0.0544935 -0.000824838 0.0 
0.196488 0.00392136 0.0 
0 0 0.0 
0.999969 -0.000135194 0.0 
0 0 0.0 
1.12163 0.112959 0.0 
0.995666 -0.00345783 0.0 
0.874439 -0.0942509 0.0 
1.00519 0.000697863 0.0 
0.0588103 -0.00440797 0.0 
0.774528 0.197535 0.0 
0.682756 0.189259 0.0 
0.229714 -0.0298609 0.0 
1.01824 0.182408 0.0 
0.0184609 0.00111017 0.0 
1.0043 -0.000310524 0.0 
0.0258613 0.000772309 0.0 
1.00209 0.000293926 0.0 
0.959521 -0.0453658 0.0 
0 0 0.0 
0.371898 -0.0173004 0.0 
0.118039 -0.00184849 0.0 
0.0307253 0.0012669 0.0 
1.00268 0 0.0 
0.130508 -0.015511 0.0 
0.0259038 0.00219726 0.0 
0.121688 -0.013734 0.0 
0.604973 -0.0504013 0.0 
0.539873 0.0599132 0.0 
1 0 0.0 
5.8976e-05 4.53635e-06 0.0 
0.208811 0.00447124 0.0 
0.853414 0.0808328 0.0 
1.00133 -0.000158509 0.0 
1 0 0.0 
0.804609 0.0187554 0.0 
0.0201944 0.00178085 0.0 
1.0035 -0.00608675 0.0 
0.0585734 -0.00876029 0.0 
1.00534 -0.00628903 0.0 
0 0 0.0 
0.102653 -0.0157302 0.0 
0.660424 0.311029 0.0 
0.132363 -0.00996918 0.0 
0.0302889 0.000782025 0.0 
0.9435 -0.0161798 0.0 
1.00984 0.0067473 0.0 
0.21071 -0.00470815 0.0 
0.0160876 0.00101592 0.0 
0.762583 0.104651 0.0 
3.55242e-208 3.07575e-209 0.0 
0 0 0.0 
1.0322 -0.0970519 0.0 
0.925343 0.3161 0.0 
0.720489 0.309402 0.0 
0 0 0.0 
1.00558 0 0.0 
0.221944 0.00592946 0.0 
0.543615 -0.0431843 0.0 
1.00092 0 0.0 
0.857878 -0.0131249 0.0 
0.00011148 8.7232e-06 0.0 
0.804173 0.0262354 0.0 
0.000129284 1.53722e-05 0.0 
0.0128082 -0.00168075 0.0 
0.179792 0.17608 0.0 
1.03837 0.00966159 0.0 
0 0 0.0 
0.971949 -0.0110272 0.0 
0.0696187 0.0584051 0.0 
1.09663 0.102532 0.0 
0 0 0.0 
0.948545 0.0166943 0.0 
0.0605081 0.000694214 0.0 
0.347926 0.0150921 0.0 
0.725746 0.0674425 0.0 
1.00601 0.000868346 0.0 
0.256103 -0.0226571 0.0 
0.859812 -0.137302 0.0 
0.391888 0.00498956 0.0 
0 0 0.0 
1.00731 0.0010617 0.0 
0.981172 -0.0678202 0.0 
0.0736907 -0.0240118 0.0 
0.874432 -0.124748 0.0 
-5.07221e-292 -2.9531e-294 0.0 
0.913294 0.323788 0.0 
1.00623 0.000688096 0.0 
0.750613 0.107095 0.0 
1.00427 0.000310212 0.0 
0.751228 0.131419 0.0 
0.686628 0.104896 0.0 
0.433433 0.133403 0.0 
0.744226 0.0769463 0.0 
0.346396 0.0125855 0.0 
1.01874 0.0564689 0.0 
0.879295 -0.0955352 0.0 
0.3157 0.0120195 0.0 
0.816919 -0.0533422 0.0 
0.999982 -0.000613036 0.0 
0.299244 0.0141042 0.0 
0.371383 0.0107853 0.0 
0.897685 0.018716 0.0 
1.00534 0.000500312 0.0 
1.07397 0.100301 0.0 
1.04731 0.00395916 0.0 
0.886802 0.00939524 0.0 
0 0 0.0 
0.228382 0.00571849 0.0 
1.01122 -0.00168283 0.0 
0.381382 -0.0274749 0.0 
0.278317 -0.329761 0.0 
0.58357 0.0838048 0.0 
0.992674 0.00297069 0.0 
0.807761 -0.0158077 0.0 
0.691364 0.181386 0.0 
0.97696 0.0356886 0.0 
1.0023 -0.000710697 0.0 
0.999802 -0.0010111 0.0 
1 0 0.0 
1.00749 -0.00248192 0.0 
7.35159e-07 -2.11219e-07 0.0 
0.100505 -0.00910212 0.0 
1.00783 0.000538614 0.0 
1.00659 -0.000531141 0.0 
0.823932 -0.0632348 0.0 
0.0138951 -0.000669262 0.0 
0.637935 0.00949211 0.0 
0.0127506 -0.00168116 0.0 
1.07271 0.0540051 0.0 
0.396624 -0.035895 0.0 
1.00056 0.00448475 0.0 
0 0 0.0 
0.999913 0 0.0 
0 0 0.0 
1.0055 0 0.0 
0.529434 0.30799 0.0 
1.00723 -0.00284224 0.0 
0 0 0.0 
0.0160123 -0.00167474 0.0 
0.137021 0.0204706 0.0 
0 0 0.0 
2.59353e-14 9.03662e-15 0.0 
0.931448 -0.0124056 0.0 
0.00476456 -0.000396449 0.0 
0.0250711 0.0013807 0.0 
1.00594 -7.46414e-05 0.0 
0.979249 -0.00283411 0.0 
0.693105 -0.0395999 0.0 
0.999292 0.0012873 0.0 
1.0037 -0.000252669 0.0 
1.00415 -0.000448265 0.0 
1.00521 -0.000246111 0.0 
1.00514 -0.00302405 0.0 
0.605121 0.0331726 0.0 
0.000125019 2.61897e-06 0.0 
0.972046 -0.002503 0.0 
0.210871 -0.00847079 0.0 
0.147175 -0.01847 0.0 
0.0115351 0.000927987 0.0 
0.470171 0.01048 0.0 
0.00825979 -0.00172203 0.0 
0.0605638 -0.0120466 0.0 
0.979636 -0.0925806 0.0 
1.08799 0.0649649 0.0 
-4.07147e-171 -1.62821e-171 0.0 
0.208934 -0.0195627 0.0 
0.999926 0.00070134 0.0 
0.783261 -0.0545362 0.0 
0.044583 -0.0048711 0.0 
0.279721 -0.174361 0.0 
0.0922762 -0.00905612 0.0 
0.422774 0.00225109 0.0 
0 0 0.0 
1.01373 0.00167587 0.0 
0.882486 -0.0377093 0.0 
1.00273 0.00142105 0.0 
1.00843 -0.0030848 0.0 
-3.30073e-90 -2.24664e-91 0.0 
1.00771 0.00274499 0.0 
1.02699 -0.0375891 0.0 
0.887111 0.0120938 0.0 
0.692016 -0.0128725 0.0 
0.585455 -0.0019458 0.0 
1.00839 0.000678981 0.0 
1.00948 -0.00243942 0.0 
0.0243618 0.000982668 0.0 
0.996413 -0.0643437 0.0 
1.00518 0.00105388 0.0 
0.199977 0.0049289 0.0 
1.0035 -0.0129488 0.0 
0.506294 -0.0406023 0.0 
1.37053e-05 -1.68983e-06 0.0 
0 0 0.0 
0.00361193 -0.000418727 0.0 
1.00672 0.00149169 0.0 
0.999938 -0.00017414 0.0 
0.99746 0.00676789 0.0 
0.930927 -0.339002 0.0 
0.59204 -0.0565855 0.0 
1.00728 0.000163337 0.0 
0.999851 -0.000306771 0.0 
0 0 0.0 
-1.87358e-294 7.09588e-296 0.0 
0.895977 -0.385199 0.0 
0.196893 -0.0210667 0.0 
0.245182 -0.00592913 0.0 
1.00001 2.16855e-05 0.0 
1.03318 -0.000787517 0.0 
1.00699 0.00103099 0.0 
1.00565 7.0626e-05 0.0 
0.0309894 0.00143161 0.0 
0.18798 0.00496415 0.0 
0.954814 0.0859319 0.0 
0.963959 -0.325112 0.0 
1.00142 -0.0006064 0.0 
0.999359 -0.00190317 0.0 
1.0089 0.000721267 0.0 
0.460561 0.0137183 0.0 
0.970484 0.0980197 0.0 
0.00976608 -0.000971539 0.0 
0.0196216 -0.00480422 0.0 
0.98181 -0.0149364 0.0 
0.950601 0.0268078 0.0 
0.37976 0.00108554 0.0 
0.29851 0.0272868 0.0 
0 0 0.0 
1.00711 -0.00224643 0.0 
0.951765 0.0619568 0.0 
0.0257968 -0.00438713 0.0 
1.00228 0.0010123 0.0 
0.969679 -0.0817668 0.0 
1.06523 0.0553283 0.0 
1.00127 0.0630774 0.0 
0.361 -0.149549 0.0 
1.00617 -0.000175879 0.0 
1.00577 0.00100685 0.0 
0 0 0.0 
0 0 0.0 
0.999485 -0.000309976 0.0 
7.68076e-48 3.68053e-49 0.0 
0.14075 0.0292043 0.0 
0.887245 -0.21819 0.0 
1.09562 0.0882418 0.0 
5.20294e-48 -4.68079e-49 0.0 
1.00422 0 0.0 
0.999564 0.00177091 0.0 
1.04494 0.211553 0.0 
1.09175 0.0563491 0.0 
0.95031 0.0281867 0.0 
0.977577 0.252383 0.0 
0.822548 0.0171192 0.0 
0.996518 0.00223064 0.0 
0.816677 0.211214 0.0 
1.00166 -0.00437336 0.0 
0.460606 0.00142848 0.0 
0.0283655 0.00225415 0.0 
0.962061 0.273333 0.0 
1.01044 0.0196296 0.0 
1.00003 0.00033407 0.0 
0.0606112 -0.00301889 0.0 
1.00041 0 0.0 
1.00229 0.00585627 0.0 
0.524649 0.03457 0.0 
0.804796 0.205425 0.0 
0.787375 0.217393 0.0 
0.0578558 -0.0182552 0.0 
-7.69139e-295 -5.59563e-297 0.0 
1.00242 -0.00155359 0.0 
0.218614 0.00513708 0.0 
0.675387 -0.0142089 0.0 
1.00124 -0.000811272 0.0 
1.00459 -0.00284852 0.0 
1.00145 -0.000790437 0.0 
1.0027 0 0.0 
1.01017 0.0239595 0.0 
0 0 0.0 
1.0045 0.00256514 0.0 
0.998494 -0.00207766 0.0 
0.000815274 5.20984e-05 0.0 
0.000770896 -9.45068e-05 0.0 
1.00532 0 0.0 
0.950717 -0.258897 0.0 
1.00239 0.00249354 0.0 
0.0427372 -0.00223199 0.0 
0.00775922 0.000470059 0.0 
0.965901 -0.189381 0.0 
0.91058 -0.0220962 0.0 
0.0804752 0.0456638 0.0 
1.0069 0.000330865 0.0 
0.190654 0.00521469 0.0 
1.00013 -0.000180911 0.0 
0.359118 0.00831488 0.0 
0.99996 0.000203585 0.0 
1.00438 0.000895757 0.0 
0 0 0.0 
1.00541 -0.000508467 0.0 
1.002 0.00165893 0.0 
0.999023 0.000205499 0.0 
1.00536 -0.000196589 0.0 
1.00008 -0.000225684 0.0 
0.305942 0.0281719 0.0 
1.02136 -0.244649 0.0 
0 0 0.0 
0.60381 -0.0472375 0.0 
0.229634 -0.0145367 0.0 
1.00752 -0.00488812 0.0 
0.170055 -0.020243 0.0 
0.747477 -0.0127555 0.0 
0.0409906 0.00176287 0.0 
0.42104 -0.00712628 0.0 
0.999344 -0.000648352 0.0 
1.00142 0 0.0 
0 0 0.0 
0.128661 -0.0127406 0.0 
1.0035 0.00211235 0.0 
0.00996344 -3.39207e-05 0.0 
1.00582 -0.000103125 0.0 
0 0 0.0 
0.878552 -0.367517 0.0 
1.00519 0.00163151 0.0 
0.121147 -0.0173234 0.0 
0.382117 0.01763 0.0 
0.899678 -0.208167 0.0 
0.531252 0.0130631 0.0 
0.92778 0.0291239 0.0 
0 0 0.0 
0.182963 -0.0236493 0.0 
0.999283 -0.0272651 0.0 
0.93201 0.0635862 0.0 
1.0067 -0.00339511 0.0 
0.995133 -0.302241 0.0 
0.259294 -0.0280438 0.0 
1.00687 -0.00153085 0.0 
0.253455 -0.175533 0.0 
0.992443 -0.00411725 0.0 
1.02578 -0.00788018 0.0 
0 0 0.0 
0 0 0.0 
0.976105 0.000963775 0.0 
0.343228 0.0105069 0.0 
0.313784 -0.00163493 0.0 
0.979436 -0.0465488 0.0 
0.234882 -0.000750964 0.0 
1.00651 -0.280694 0.0 
1.00467 0 0.0 
0.412994 -0.0165759 0.0 
1.00059 0.00041818 0.0 
0.753514 0.025883 0.0 
1.00131 0.000902108 0.0 
0.820726 -0.0214921 0.0 
0.805235 -0.413594 0.0 
0.148094 -0.0237381 0.0 
0.892738 -0.31904 0.0 
1.00275 0.00232371 0.0 
1.00125 -0.00402897 0.0 
0.312671 -0.112725 0.0 
0.380104 0.0157772 0.0 
0.822164 -0.0217523 0.0 
1.00012 -0.000550996 0.0 
0.0202866 0.00092693 0.0 
0.996431 -0.00110058 0.0 
0 0 0.0 
0.000485343 1.1529e-05 0.0 
0 0 0.0 
0.0313201 0.00050813 0.0 
0.154275 -0.0292887 0.0 
1.00113 -0.000144986 0.0 
1.00004 -0.000233588 0.0 
1.03665 -0.252756 0.0 
1.01 -0.00302634 0.0 
1.00824 -0.00218112 0.0 
0.211245 0.00578996 0.0 
1.0317 0.235727 0.0 
1.00578 -0.00449764 0.0 
1.0002 -0.000571597 0.0 
1.00743 -0.00170042 0.0 
0.997006 0.0235999 0.0 
1.00062 -0.00107406 0.0 
0.0262784 0.00161267 0.0 
0.740587 -0.0366764 0.0 
0.977597 0.0158267 0.0 
1.02909 -0.0559272 0.0 
1.07131 0.153603 0.0 
1.0048 0.00176718 0.0 
0.0245165 0.00217843 0.0 
1.07191e-45 4.22806e-47 0.0 
0.348482 -0.00496475 0.0 
0.992697 0.058727 0.0 
0.500026 -0.352601 0.0 
0 0 0.0 
0.0790831 -0.00991099 0.0 
1.00038 0.00247753 0.0 
0.512209 -0.0372578 0.0 
1.0063 -0.000256154 0.0 
0.999344 -0.0011294 0.0 
0.162497 0.00409279 0.0 
0.788903 -0.0522502 0.0 
0.0343272 0.0129812 0.0 
4.79788e-06 -7.19636e-07 0.0 
0.0074164 0.000885618 0.0 
1.0033 -0.000924935 0.0 
1.00633 -4.57261e-05 0.0 
1.00522 0.000446967 0.0 
1.00662 0.00127012 0.0 
1.02503 0.0133896 0.0 
0.959693 -0.0248365 0.0 
0.71368 0.0219136 0.0 
1.00078 -0.00280481 0.0 
1.00346 0.00335343 0.0 
0.0185627 0.00161369 0.0 
0.999969 -3.87681e-05 0.0 
1.00115 0.00171108 0.0 
0.998924 -0.000583151 0.0 
0.176115 -0.0248701 0.0 
0.946733 -0.00436257 0.0 
1.00216 -0.000440064 0.0 
0.266359 -0.0298021 0.0 
1.00753 -0.00229745 0.0 
0.993617 0.0066861 0.0 
0.771661 -0.0282709 0.0 
0.884203 0.0401708 0.0 
0.504095 0.0140336 0.0 
0.0377395 -0.00628556 0.0 
0.980862 0.0055222 0.0 
0.999992 2.92071e-05 0.0 
1.00438 -0.000229324 0.0 
0.406609 -0.0154013 0.0 
1.00554 -2.30263e-05 0.0 
0.0202545 0.000468229 0.0 
1.00496 -0.000141857 0.0 
0.999007 -0.00082594 0.0 
0.944621 0.00104517 0.0 
0.329863 0.00573897 0.0 
0.996251 0.0233753 0.0 
1.42307e-217 -1.02437e-218 0.0 
0.706794 -0.0458988 0.0 
0.190752 0.012968 0.0 
0.0430152 -0.00365274 0.0 
0.0636856 0.00254769 0.0 
0.875674 -0.0770819 0.0 
-8.90684e-91 1.84592e-92 0.0 
0.945043 -0.0335916 0.0 
0.866865 -0.0505331 0.0 
1.02107 0.000807786 0.0 
1.00001 -0.000168925 0.0 
0.0106063 -0.00164159 0.0 
-3.18572e-277 -9.31288e-278 0.0 
0.610654 0.00351016 0.0 
1.00541 0 0.0 
1.00712 -0.000656131 0.0 
1.00481 0.000805326 0.0 
1.01111 -0.00405011 0.0 
1.01535 0.0208497 0.0 
0.918405 -0.00446559 0.0 
0.85615 0.011654 0.0 
1.00057 0.00143952 0.0 
1.00138 0.000370115 0.0 
0.128487 0.0349636 0.0 
0 0 0.0 
0 0 0.0 
0.40792 0.00585333 0.0 
0.182423 0.0616919 0.0 
1.00764 -0.00419312 0.0 
0.785084 0.342759 0.0 
0.0124169 0.00169596 0.0 
0.985003 0.0443878 0.0 
0.380582 0.0113761 0.0 
0.544343 0.0100681 0.0 
0.105463 0.00158494 0.0 
0.0367383 0.00025555 0.0 
1.00117 0.000575464 0.0 
1.00606 0.0023342 0.0 
0.0364519 0.00139541 0.0 
1.01709 0.0173011 0.0 
0.0508724 -0.00119095 0.0 
0 0 0.0 
1.00379 -0.00769875 0.0 
1.00552 9.33909e-06 0.0 
0.148338 -0.00223824 0.0 
1.00151 0 0.0 
0.0588816 -0.00347736 0.0 
1.00714 0.000883027 0.0 
0.999909 -5.15189e-05 0.0 
1.00616 0.0013796 0.0 
1 0.000128503 0.0 
1.00562 0.00233317 0.0 
1.00554 1.33458e-05 0.0 
1.27799e-124 4.94449e-126 0.0 
1.00219 0.00404862 0.0 
1.0044 -0.00128595 0.0 
0.997882 -0.00442514 0.0 
0.223975 -0.00575972 0.0 
0.999126 0.00107687 0.0 
1.00562 0.00210443 0.0 
1.02721 -0.101023 0.0 
1.01882 0.220707 0.0 
0.0266887 0.00100757 0.0 
1.00297 0.00058797 0.0 
0.803138 0.319115 0.0 
0.578752 0.0717129 0.0 
0.532671 0.00248747 0.0 
0.989779 0.00559818 0.0 
1.0073 0.00072134 0.0 
1.0017 0.00170286 0.0 
0.994754 -0.0164093 0.0 
0.254569 -0.0494269 0.0 
0.635211 0.0341083 0.0 
0.905147 -0.00303155 0.0 
1 3.79963e-05 0.0 
1.00706 -0.00161157 0.0 
0.136852 0.00413261 0.0 
0.693004 0.00101219 0.0 
1.00011 0.000800534 0.0 
1.00394 0.000325945 0.0 
0.227954 0.0227764 0.0 
0.970524 0.0433771 0.0 
1.00823 0.00501936 0.0 
1.00448 -0.00562318 0.0 
1.00484 -0.00106248 0.0 
0.962375 -0.283692 0.0 
1.00642 -0.000879677 0.0 
0.924904 -0.305614 0.0 
0.997319 -0.000783601 0.0 
0.999359 0.00072043 0.0 
1.00655 0.000559306 0.0 
0 0 0.0 
1.00002 -0.000183084 0.0 
1.00292 0.000187999 0.0 
0.942472 -0.0379102 0.0 
1.00473 0.00253176 0.0 
1.0083 0.00122542 0.0 
1.00006 -0.000442139 0.0 
0.999866 0.00142443 0.0 
0.844714 -0.0236914 0.0 
1.00024 0.000355771 0.0 
1.00758 0.00113449 0.0 
0.073297 -0.0289884 0.0 
1.00352 -0.000627403 0.0 
1.01013 0.00411275 0.0 
0.237339 -0.0245888 0.0 
1.01821 0.0100054 0.0 
0 0 0.0 
0.63665 0.0147878 0.0 
0.32457 0.00952383 0.0 
0.705228 0.0907022 0.0 
0.0125701 -0.00221812 0.0 
1.00158 0.00297114 0.0 
1.0013 0.0053927 0.0 
1.00733 -0.00212632 0.0 
0.990514 -0.0034315 0.0 
1.00656 -0.00788377 0.0 
1.0016 0.00366786 0.0 
1.00501 0.00103982 0.0 
1.00893 0.00212133 0.0 
1.0022 0.000773484 0.0 
1.00003 0.000303565 0.0 
1.00491 0.00195094 0.0 
1.00065 0.205946 0.0 
1.00691 -0.000439369 0.0 
1.12163 0.0823962 0.0 
0.993764 -0.00765327 0.0 
1.00811 -0.00711933 0.0 
1.00525 -0.000143332 0.0 
0.998789 -0.000854286 0.0 
0.00860937 0.000398175 0.0 
0.995358 -0.00736943 0.0 
1.00614 0.00106372 0.0 
0.97053 -0.0277923 0.0 
0.38461 -0.0108489 0.0 
1.01198 0.00140439 0.0 
7.60771e-209 8.4133e-210 0.0 
0.98042 -0.00740034 0.0 
0.164145 0.0105594 0.0 
0.998826 -0.00118886 0.0 
1.03072 -0.0259097 0.0 
0 0 0.0 
1.00922 -0.00360006 0.0 
0.0147586 -2.87897e-05 0.0 
0.0155692 -0.00264938 0.0 
0.453055 -0.307381 0.0 
0.332341 -0.00587504 0.0 
1.00321 0.000344419 0.0 
5.1614e-06 -3.22765e-07 0.0 
-4.23187e-103 3.12754e-104 0.0 
0.066247 0.00146035 0.0 
0.203846 0.0173591 0.0 
0.213058 0.0063042 0.0 
0.999997 -0.000199298 0.0 
0.0384052 0.00212021 0.0 
0.788156 0.0329448 0.0 
1.00392 0.000248141 0.0 
1.00078 0.00125384 0.0 
0.285317 -0.0410835 0.0 
0.999656 -0.000410128 0.0 
6.3097e-05 -1.41297e-05 0.0 
0.702624 -0.00493086 0.0 
0.130704 -0.0175139 0.0 
0.256255 0.0225991 0.0 
0.869229 -0.0165022 0.0 
0.862536 0.0304795 0.0 
0 0 0.0 
1.00166 0.000227633 0.0 
0.0307381 -0.0168482 0.0 
0.0638575 -0.00166819 0.0 
0.998709 9.01398e-05 0.0 
0.0156471 -0.000662383 0.0 
0.950982 0.00378432 0.0 
1.03039 0.0128259 0.0 
0.270982 -0.0226795 0.0 
0.998059 0.00174387 0.0 
0.962411 -0.0565382 0.0 
1.00735 0.000883286 0.0 
1.006 -0.0450402 0.0 
1.00593 0.00314241 0.0 
0.074124 -0.00190356 0.0 
0.961832 -0.0446795 0.0 
1.00501 -0.00242064 0.0 
0.00754324 0.000102772 0.0 
0.998902 0.0044726 0.0 
1.00103 0.00154484 0.0 
1.01319 -0.00561705 0.0 
1.00172 -0.000500739 0.0 
0.92 -0.0251558 0.0 
0.0229153 0.000203022 0.0 
0.00219337 -0.000616039 0.0 
1.00569 -0.000109885 0.0 
1.00466 -0.00278253 0.0 
1 0.000231661 0.0 
0.00706769 -0.00115253 0.0 
0.999479 -0.000455056 0.0 
0.000286053 -1.51495e-05 0.0 
0.815535 -0.0266034 0.0 
1.00045 -0.00130373 0.0 
1.00491 0.00139071 0.0 
0.999498 -5.42961e-05 0.0 
0.999181 0.00314889 0.0 
0.0144986 0.000839955 0.0 
0.153706 -0.0396326 0.0 
1 -0.000946879 0.0 
0.999977 7.24862e-06 0.0 
1.07176 0.0777576 0.0 
0.0243996 -0.00342116 0.0 
1.00203 0 0.0 
1.00116 -0.00418935 0.0 
1.00466 -0.00248976 0.0 
0.955681 0.0281848 0.0 
1.00408 0.00294932 0.0 
1.00728 -0.00105153 0.0 
1.00617 0.0010538 0.0 
0.81322 0.0141596 0.0 
1.00328 0.000831295 0.0 
0.214321 0.0683413 0.0 
1.00688 0.000935828 0.0 
1.00846 0.00159847 0.0 
0.892486 -0.0517548 0.0 
8.67791e-05 9.01156e-07 0.0 
0.723508 -0.0308725 0.0 
1.0003 -0.00028737 0.0 
1.00001 -0.0002592 0.0 
0.853314 -0.155165 0.0 
0.882812 0.241807 0.0 
0.86173 0.0313621 0.0 
1.00729 0.00105732 0.0 
1.00757 0.000941358 0.0 
1.00872 2.33833e-05 0.0 
0.0783909 0.0812128 0.0 
1.00518 0.00223879 0.0 
0.993592 -0.00479955 0.0 
0.755684 0.011923 0.0 
1.1256 0.0856811 0.0 
1.0061 0.0015312 0.0 
0.402438 0.0050193 0.0 
7.54518e-06 7.44927e-07 0.0 
0.432193 0.00786738 0.0 
0 0 0.0 
0.998209 0.000191385 0.0 
1.00161 -0.00596085 0.0 
1.00557 3.67656e-05 0.0 
0.99991 -0.00186589 0.0 
1.00556 -0.00020601 0.0 
0.999379 -0.000548968 0.0 
1.0004 -0.00169252 0.0 
0.181902 0.000345741 0.0 
1.00472 0.00189356 0.0 
1.00596 0.00769324 0.0 
1.00117 0.00132372 0.0 
1.00054 -0.00193767 0.0 
0.389024 0.00546963 0.0 
1.00247 -0.000509545 0.0 
0.316706 0.0432319 0.0 
1.00685 0.00109898 0.0 
0.834721 0.117618 0.0 
1.00021 -0.000709965 0.0 
1.00022 -0.000770945 0.0 
0 0 0.0 
0.893706 0.0141016 0.0 
0.999707 0.00504676 0.0 
1.00008 -0.000688381 0.0 
0.0826759 0.0058975 0.0 
1.00196 -0.000629319 0.0 
0.927653 -0.164053 0.0 
1.03621e-15 1.41424e-16 0.0 
0.816547 0.126921 0.0 
3.78916e-07 -7.7225e-09 0.0 
0.274449 0.00423768 0.0 
0.287725 -0.0230227 0.0 
0.417833 0.00198108 0.0 
1.04012 -0.00267895 0.0 
0.0237204 0.00174609 0.0 
0.434804 -0.00112736 0.0 
1.0079 -0.000335349 0.0 
1.00128 -0.00660289 0.0 
0.863927 0.110303 0.0 
1.00559 -0.000571095 0.0 
0.585208 0.0349178 0.0 
1.00411 -0.00248179 0.0 
0.644806 -0.0271338 0.0 
1.00089 0.0168606 0.0 
0.300113 0.144521 0.0 
0.9978 0.00250519 0.0 
0.999813 -0.000706739 0.0 
1.00647 -0.0010434 0.0 
0.17742 -0.0196438 0.0 
1.01061 -0.00188163 0.0 
0.0552915 0.00274599 0.0 
0.334169 -0.00158651 0.0 
0.354256 -0.00176801 0.0 
1.00439 0.0006179 0.0 
0.0365185 -0.0071485 0.0 
1.00652 0.00049745 0.0 
0.788078 0.14115 0.0 
1.00092 -0.00320678 0.0 
1.00576 -0.000514802 0.0 
1.00538 0.000657915 0.0 
1.10659 0.0975105 0.0 
1.00712 0.000730132 0.0 
1.00007 -0.000222073 0.0 
0.346898 0.00100327 0.0 
1.00575 -0.00322699 0.0 
1.00602 0.00121373 0.0 
0.794722 -0.00119719 0.0 
0.999832 -0.000283467 0.0 
0.997679 0.00434441 0.0 
0.995327 -0.00632642 0.0 
1.00001 -0.000132928 0.0 
0.993448 -0.00233844 0.0 
0.0117668 -0.00218297 0.0 
0.999796 -0.000806725 0.0 
0.913623 -0.0159772 0.0 
1.00321 0.00218938 0.0 
1.00079 0 0.0 
1.00583 -0.001576 0.0 
0.995297 -0.00162468 0.0 
0.021262 -0.000184445 0.0 
0.835963 -0.0515846 0.0 
1 -0.000253549 0.0 
0.323061 -0.234662 0.0 
0.390159 0.0865104 0.0 
1 0 0.0 
1.0047 0.00205579 0.0 
1.00249 0.00989207 0.0 
0.0487975 -0.00306385 0.0 
0.24643 -0.0108674 0.0 
0.011 0.000790867 0.0 
0 0 0.0 
0.0324427 -0.0028795 0.0 
0.0540044 -6.72747e-05 0.0 
0 0 0.0 
0.0251367 -2.41911e-06 0.0 
7.16443e-05 -8.32152e-06 0.0 
0.236316 0.0041691 0.0 
0.167718 0.051041 0.0 
1.00366 -0.00295059 0.0 
0.123252 0.0310564 0.0 
1.05574 0.0987029 0.0 
0.0894357 0.00132404 0.0 
0.8863 -0.0552105 0.0 
0.0151863 -0.0279984 0.0 
1.00334 0.000644063 0.0 
0.0610598 -0.0132055 0.0 
1.00103 -0.00131996 0.0 
0.997513 0.0123289 0.0 
0 0 0.0 
0.915014 -0.373023 0.0 
0.0315335 -0.00450709 0.0 
0.999257 -0.00137056 0.0 
1.00594 -0.000467248 0.0 
0.730299 -0.0166971 0.0 
0.417261 0.0275296 0.0 
1.00158 0.00321632 0.0 
0.706331 0.0132885 0.0 
0.999122 0.000427222 0.0 
0.0500772 0.00315901 0.0 
1.00718 0.00237289 0.0 
1.00171 -0.000717998 0.0 
0.999764 0.00185076 0.0 
0.695255 -0.00537441 0.0 
1.00253 0.000135298 0.0 
1.04074 0.0238056 0.0 
1.00537 0 0.0 
0.883953 -0.0206494 0.0 
0.562335 -0.0357229 0.0 
1.00352 -0.00122427 0.0 
1.00121 0.00191944 0.0 
0.00978123 0.00107381 0.0 
5.57651e-47 -3.66904e-48 0.0 
1.11697 0.0439846 0.0 
1.0048 0.00062778 0.0 
1.01246 0.0261104 0.0 
0.406358 -0.0979274 0.0 
1.0045 0.00106991 0.0 
1.00623 -0.00219104 0.0 
0.978726 0.00529509 0.0 
1.00584 -0.000320341 0.0 
0.978384 0.00367722 0.0 
0.886955 -0.0211231 0.0 
1.01183 -0.0136243 0.0 
0.997939 0.000633692 0.0 
0.404104 0.0315327 0.0 
0.883558 0.0252397 0.0 
1.00329 0 0.0 
1.00468 0.000550566 0.0 
0.914942 0.0302794 0.0 
1.00544 8.40309e-05 0.0 
0.657129 0.0111037 0.0 
0.612462 -0.431361 0.0 
1.00547 -0.000831207 0.0 
0.906264 -0.0266746 0.0 
0.105354 0.0292046 0.0 
1.00123 -0.0022442 0.0 