<VTKFile type="UnstructuredGrid" version="0.1" byte_order="LittleEndian">
  <UnstructuredGrid>
    <Piece NumberOfPoints="13552" NumberOfCells="26915">
      <Points>
        <DataArray type = "Float64" NumberOfComponents="3" format="ascii">
0 0 0.0 
14 0 0.0 
14 8 0.0 
0 8 0.0 
0.383893 2.91152 0.0 
4.05959 4.0424 0.0 
4.04693 4.34907 0.0 
4.39544 3.99564 0.0 
7.42827 2.99581 0.0 
0.384822 4.35157 0.0 
10.891 4.29062 0.0 
4.07057 3.9639 0.0 
4.53824 7.43039 0.0 
0.762019 5.13086 0.0 
3.98741 4.04054 0.0 
3.98768 4.02653 0.0 
13.0455 3.93051 0.0 
4.2321 4.07437 0.0 
4.93904 4.11785 0.0 
3.63018 3.86593 0.0 
1.60222 4.99327 0.0 
4.47538 4.03375 0.0 
4.67405 4.10923 0.0 
4.1789 4.0308 0.0 
4.80484 4.03022 0.0 
4.61584 4.00791 0.0 
12.1265 0 0.0 
4.29012 4.03983 0.0 
3.99474 4.00051 0.0 
4.39913 4.02884 0.0 
4.31421 3.99344 0.0 
4.13489 4.05432 0.0 
0.161552 7.5399 0.0 
4.27505 3.99153 0.0 
4.21359 4.04577 0.0 
4.35667 3.99327 0.0 
4.34335 4.01729 0.0 
0 3.36284 0.0 
4.93697 3.93496 0.0 
4.10206 3.96084 0.0 
11.5613 2.86328 0.0 
10.1734 4.4195 0.0 
4.0273 4.01367 0.0 
4.37624 4.03251 0.0 
4.72673 4.01395 0.0 
4.62342 4.01415 0.0 
5.01113 4.1034 0.0 
5.17517 4.1161 0.0 
13.4868 6.98366 0.0 
6.55095 4.59212 0.0 
4.19587 4.09387 0.0 
4.12607 4.05951 0.0 
4.51881 4.031 0.0 
4.2483 4.03635 0.0 
4.0955 3.94899 0.0 
4.03444 4.04627 0.0 
4.00163 4.02959 0.0 
4.02005 3.99731 0.0 
5.23503 8 0.0 
4.30375 3.97965 0.0 
6.3157 4.87688 0.0 
4.51959 4.01185 0.0 
5.35828 4.09214 0.0 
4.94157 3.98326 0.0 
5.25238 4.08088 0.0 
10.5103 5.31673 0.0 
6.49425 0.938237 0.0 
4.13226 5.72942 0.0 
4.70958 7.08222 0.0 
4.3547 4.03787 0.0 
4.09132 3.99334 0.0 
4.15825 4.03374 0.0 
4.04672 4.0202 0.0 
4.94501 3.90266 0.0 
3.49936 5.13979 0.0 
4.54772 3.97659 0.0 
3.96947 4.02134 0.0 
1.06432 1.49826 0.0 
5.28835 3.91341 0.0 
3.96297 3.96024 0.0 
4.21254 3.97074 0.0 
5.21613 3.3129 0.0 
4.70511 4.01377 0.0 
4.11692 3.94964 0.0 
13.611 1.35207 0.0 
3.95785 3.95439 0.0 
13.8261 5.94601 0.0 
4.02972 4.04518 0.0 
4.48118 4.02682 0.0 
3.97141 4.03046 0.0 
4.23202 4.04646 0.0 
3.97561 4.03322 0.0 
3.97816 4.02179 0.0 
4.04633 4.03304 0.0 
3.96767 4.02507 0.0 
4.53971 3.97638 0.0 
8.82707 4.16839 0.0 
4.27576 3.95853 0.0 
4.54225 3.97864 0.0 
4.02027 4.02101 0.0 
4.00988 3.97037 0.0 
4.54991 3.98013 0.0 
4.37488 4.03883 0.0 
4.73521 7.52615 0.0 
4.00813 4.01182 0.0 
4.06535 4.0308 0.0 
4.57455 4.08211 0.0 
4.51322 3.98638 0.0 
10.2825 1.17789 0.0 
3.76611 3.80122 0.0 
11.0142 2.68934 0.0 
4.24464 4.04336 0.0 
4.5859 4.50348 0.0 
1.21408 1.2833 0.0 
2.61514 0.506135 0.0 
4.2682 3.99782 0.0 
2.46912 6.85608 0.0 
4.44591 4.02282 0.0 
4.88569 3.98105 0.0 
3.59697 3.72322 0.0 
6.37297 2.73989 0.0 
6.50541 6.65271 0.0 
4.0914 3.96216 0.0 
12.6426 3.42228 0.0 
5.20281 3.96498 0.0 
4.90839 4.00372 0.0 
4.53992 4.00595 0.0 
4.65935 4.04515 0.0 
7.58425 5.24486 0.0 
4.05312 3.99197 0.0 
13.7435 8 0.0 
4.11702 4.02719 0.0 
6.67367 0 0.0 
4.00932 4.01975 0.0 
6.82471 4.26136 0.0 
4.20354 4.03712 0.0 
4.051 4.00074 0.0 
4.45409 2.45801 0.0 
3.91739 4.01983 0.0 
10.4466 3.51765 0.0 
4.06603 3.98411 0.0 
4.53576 4.02646 0.0 
5.29251 4.05838 0.0 
6.22735 7.50315 0.0 
4.00964 3.98933 0.0 
3.05835 3.50593 0.0 
4.1403 4.03691 0.0 
4.98619 3.93198 0.0 
8.95603 7.57132 0.0 
4.31006 3.99238 0.0 
4.22222 4.09636 0.0 
3.98122 4.01031 0.0 
4.52943 3.99719 0.0 
3.10914 5.59567 0.0 
4.4618 3.99646 0.0 
3.81907 4.22339 0.0 
3.31161 1.01031 0.0 
4.43281 4.03235 0.0 
4.07047 4.09043 0.0 
4.54778 4.01674 0.0 
4.08927 3.9549 0.0 
11.1865 7.25481 0.0 
4.46798 4.00874 0.0 
8.48285 5.046 0.0 
4.49824 3.99847 0.0 
4.09428 3.96323 0.0 
4.56826 3.99519 0.0 
3.1002 2.25282 0.0 
4.47099 4.06201 0.0 
4.18332 3.96996 0.0 
5.25032 1.89548 0.0 
4.26449 3.98943 0.0 
4.62541 3.98262 0.0 
12.0372 1.49526 0.0 
4.56283 3.99857 0.0 
4.6207 4.09144 0.0 
4.48765 4.04193 0.0 
4.05399 4.05242 0.0 
5.11537 3.91723 0.0 
4.51911 3.99798 0.0 
9.6913 3.27137 0.0 
6.38052 3.13775 0.0 
5.9291 5.15993 0.0 
4.34193 4.03712 0.0 
4.32918 3.99209 0.0 
9.4176 1.73395 0.0 
4.20327 3.97947 0.0 
5.24537 4.1668 0.0 
4.12608 4.0407 0.0 
4.46368 4.04155 0.0 
4.51312 3.99876 0.0 
4.06062 3.97377 0.0 
8.35832 2.9685 0.0 
13.4699 7.45697 0.0 
4.22492 3.96395 0.0 
4.01229 3.97705 0.0 
4.53801 4.03291 0.0 
3.93277 3.96019 0.0 
4.15048 3.98629 0.0 
4.09808 4.03387 0.0 
6.98691 2.68677 0.0 
4.00577 3.97873 0.0 
4.00773 4.00001 0.0 
4.01425 3.98947 0.0 
4.1898 4.04981 0.0 
7.62224 2.88267 0.0 
7.22419 0.703495 0.0 
1.21547 8 0.0 
4.21617 4.04472 0.0 
14 1.00091 0.0 
4.56073 4.0643 0.0 
3.69148 4.54396 0.0 
10.7133 0.399817 0.0 
5.8599 3.0813 0.0 
8.4574 2.322 0.0 
4.19189 4.05537 0.0 
14 3.14675 0.0 
4.76297 3.98343 0.0 
1.48228 7.49995 0.0 
4.6103 3.91602 0.0 
3.88293 3.53339 0.0 
4.00241 3.93803 0.0 
4.11575 4.03408 0.0 
13.1818 2.98063 0.0 
4.20274 4.07949 0.0 
9.69483 7.24214 0.0 
12.5015 1.14918 0.0 
4.09797 3.95385 0.0 
4.23052 4.09368 0.0 
4.20868 4.08388 0.0 
4.00414 3.99309 0.0 
4.55171 4.00358 0.0 
4.20816 3.9787 0.0 
4.21025 4.03415 0.0 
3.9023 6.84053 0.0 
6.52781 1.51786 0.0 
4.63883 4.00936 0.0 
9.95575 3.59912 0.0 
3.98799 3.95955 0.0 
3.22027 3.32386 0.0 
8.82235 8 0.0 
4.23781 4.09881 0.0 
2.66717 0 0.0 
4.69512 3.9114 0.0 
4.2904 3.92587 0.0 
4.09065 3.95069 0.0 
4.06329 4.04721 0.0 
8.91842 0.967714 0.0 
4.18805 3.96826 0.0 
13.1592 5.25121 0.0 
11.8702 0.212102 0.0 
4.15165 4.04471 0.0 
0.417479 6.31883 0.0 
4.78397 4.49611 0.0 
4.02321 3.97317 0.0 
4.12396 3.98728 0.0 
4.84915 4.03246 0.0 
3.98977 4.04663 0.0 
3.99153 4.04254 0.0 
4.57553 4.01147 0.0 
4.96928 3.97464 0.0 
12.1545 3.0426 0.0 
4.06119 4.25256 0.0 
3.97296 4.00674 0.0 
11.3714 7.19716 0.0 
9.192 5.81999 0.0 
6.98728 5.60342 0.0 
3.53429 0 0.0 
4.67134 3.89044 0.0 
4.08953 4.02996 0.0 
4.14091 4.04918 0.0 
2.30378 3.03595 0.0 
3.92937 4.29327 0.0 
9.65837 4.25696 0.0 
7.40997 8 0.0 
1.94587 1.61999 0.0 
2.86414 6.59491 0.0 
4.27433 4.04197 0.0 
9.9204 3.84008 0.0 
12.9422 5.39238 0.0 
4.08326 4.07122 0.0 
9.70352 1.23095 0.0 
6.78993 2.13526 0.0 
4.00565 4.00149 0.0 
0.846754 0.565038 0.0 
4.84809 6.69312 0.0 
4.21339 4.02989 0.0 
4.1688 4.04592 0.0 
4.02904 3.9664 0.0 
7.59973 7.22298 0.0 
12.6277 1.80732 0.0 
14 4.58149 0.0 
5.85073 0.410811 0.0 
13.0902 7.46595 0.0 
4.08911 3.98537 0.0 
3.14601 3.72722 0.0 
3.84668 3.90466 0.0 
4.29617 3.98443 0.0 
4.35099 4.71544 0.0 
1.7767 6.77587 0.0 
4.51225 4.03393 0.0 
3.96066 4.00697 0.0 
10.6153 7.62373 0.0 
4.96395 4.01931 0.0 
13.1661 5.68046 0.0 
13.7895 0 0.0 
4.10795 4.02897 0.0 
11.7171 4.36105 0.0 
11.4357 2.10385 0.0 
4.89402 3.94006 0.0 
4.06088 4.07878 0.0 
4.00791 4.0033 0.0 
4.0088 3.9805 0.0 
9.75515 2.36072 0.0 
4.3867 4.07965 0.0 
12.6381 7.48703 0.0 
4.02947 3.97325 0.0 
6.07432 4.98134 0.0 
4.6454 3.91884 0.0 
4.01129 4.00596 0.0 
7.83547 2.82767 0.0 
4.90953 3.97583 0.0 
13.5337 6.38237 0.0 
3.45015 4.08855 0.0 
4.01755 3.97046 0.0 
4.52386 4.04096 0.0 
0.195775 6.68759 0.0 
3.58125 4.19858 0.0 
6.42419 4.18044 0.0 
4.55143 4.02796 0.0 
4.05373 4.0206 0.0 
4.0593 4.0207 0.0 
4.19636 4.04726 0.0 
13.6945 7.80328 0.0 
4.11868 3.97589 0.0 
4.15516 3.94365 0.0 
4.01695 3.96353 0.0 
3.90873 3.96016 0.0 
8.32777 8 0.0 
6.64238 0.26606 0.0 
4.1459 3.9873 0.0 
11.2308 4.89339 0.0 
13.2903 7.45798 0.0 
5.06461 4.08435 0.0 
4.00437 3.9841 0.0 
4.3099 4.04149 0.0 
4.0134 3.97877 0.0 
3.03193 6.72582 0.0 
4.1283 4.05439 0.0 
4.01079 3.9893 0.0 
4.09813 3.98338 0.0 
4.36156 4.08272 0.0 
2.48952 3.59766 0.0 
0.348252 3.38744 0.0 
4.5555 3.99979 0.0 
4.20001 4.03326 0.0 
4.55263 4.00322 0.0 
4.21639 4.03358 0.0 
4.1152 4.03957 0.0 
3.89766 4.03669 0.0 
11.5792 7.84461 0.0 
0.551344 1.2516 0.0 
4.02575 3.96118 0.0 
3.9269 3.9978 0.0 
6.49849 5.21743 0.0 
2.46638 6.41982 0.0 
14 3.84943 0.0 
6.21686 4.3493 0.0 
4.96907 4.10551 0.0 
3.9678 4.04963 0.0 
4.30033 6.55304 0.0 
11.8351 6.74811 0.0 
10.151 2.94085 0.0 
4.1127 3.96242 0.0 
10.0323 4.54408 0.0 
4.15116 3.93854 0.0 
4.13176 4.07898 0.0 
10.2186 2.28825 0.0 
5.81585 4.04524 0.0 
4.21594 3.97337 0.0 
4.85957 4.01386 0.0 
4.44624 3.99091 0.0 
4.00279 3.99128 0.0 
4.05385 4.00986 0.0 
12.4007 3.01873 0.0 
2.89315 5.49872 0.0 
1.1914 3.57636 0.0 
6.32476 7.00417 0.0 
12.5996 5.63737 0.0 
4.64409 4.00438 0.0 
12.328 3.19373 0.0 
4.34188 3.99378 0.0 
5.0604 3.97687 0.0 
4.01461 4.01826 0.0 
8.67201 2.39205 0.0 
4.11271 4.04576 0.0 
5.99014 4.04483 0.0 
4.00923 4.01305 0.0 
7.6398 2.6807 0.0 
4.54308 4.00447 0.0 
3.96806 4.01296 0.0 
11.0968 5.75296 0.0 
4.55406 3.99831 0.0 
4.34634 3.99443 0.0 
11.8107 0.651755 0.0 
6.73412 3.55133 0.0 
3.84339 4.3065 0.0 
4.5467 4.03146 0.0 
4.02586 3.98561 0.0 
7.01384 4.49853 0.0 
4.53595 4.04072 0.0 
7.20657 5.05296 0.0 
3.05391 4.40989 0.0 
0.845864 1.62601 0.0 
6.95088 7.06331 0.0 
6.85323 7.27439 0.0 
4.53323 4.0151 0.0 
5.30644 0.173765 0.0 
0.198711 3.79297 0.0 
4.72583 0.194576 0.0 
3.90471 2.31823 0.0 
3.77157 4.00813 0.0 
4.15124 4.79324 0.0 
4.2905 4.04084 0.0 
4.52619 3.99762 0.0 
4.3703 4.03412 0.0 
4.73668 3.89169 0.0 
4.04877 3.98924 0.0 
3.96886 4.00175 0.0 
4.64006 3.99672 0.0 
12.4972 4.91001 0.0 
6.1187 4.72332 0.0 
4.03795 3.98521 0.0 
4.71442 4.01913 0.0 
4.82507 4.1106 0.0 
4.48688 3.99579 0.0 
4.15595 4.04508 0.0 
0.347962 1.57688 0.0 
6.21307 5.48605 0.0 
4.05541 4.08754 0.0 
7.00233 6.47926 0.0 
7.78364 0 0.0 
6.32437 6.34013 0.0 
5.97374 5.37063 0.0 
5.62592 4.80931 0.0 
4.7383 3.87602 0.0 
2.77495 7.51281 0.0 
7.34292 5.19319 0.0 
1.64832 6.43608 0.0 
13.7604 0.5867 0.0 
11.1952 3.0323 0.0 
7.19396 5.74117 0.0 
2.41658 7.83801 0.0 
4.25841 3.96952 0.0 
4.03014 4.02376 0.0 
4.58731 3.0883 0.0 
4.0104 4.03331 0.0 
4.54095 4.00708 0.0 
4.01845 4.01173 0.0 
4.03832 3.98435 0.0 
4.26037 4.04317 0.0 
2.56444 3.80163 0.0 
5.18192 3.94368 0.0 
4.07229 4.03338 0.0 
1.33311 1.459 0.0 
4.26888 3.99048 0.0 
4.0458 4.09575 0.0 
4.00163 4.00499 0.0 
13.1302 3.51105 0.0 
7.14156 0.150746 0.0 
4.61915 3.98898 0.0 
4.00353 3.9915 0.0 
5.35688 3.74807 0.0 
7.16062 3.035 0.0 
4.93651 4.08386 0.0 
[...]
<PointData>
  <DataArray type = "Float64" Name="Vitesse" NumberOfComponents="3" format="ascii">
1 0 0.0 
1.00322 0 0.0 
1.001 0 0.0 
1 0 0.0 
0.999969 -0.000136453 0.0 
0.69009 0.18519 0.0 
1.01897 0.0562852 0.0 
1.42765e-127 9.78729e-129 0.0 
1.00741 0.000407181 0.0 
0.99996 0.000203668 0.0 
0.996646 -0.00317369 0.0 
0.874306 -0.0944669 0.0 
1.00523 0.000720849 0.0 
0.999926 0.000702117 0.0 
0.77426 0.19756 0.0 
0.682397 0.189168 0.0 
0.958737 -0.00198981 0.0 
0.80335 0.0260856 0.0 
0.95967 -0.0248092 0.0 
0.97196 -0.010974 0.0 
0.999562 0.00177193 0.0 
0.133097 -0.0159504 0.0 
0.959348 -0.0453574 0.0 
0 0 0.0 
0.371566 -0.0172973 0.0 
0.117828 -0.00178309 0.0 
1.00452 0 0.0 
2.64676e-13 -9.53588e-15 0.0 
0.279587 -0.174631 0.0 
0.000228554 -2.36792e-05 0.0 
5.6784e-08 4.68274e-09 0.0 
0.538452 0.0592802 0.0 
1 3.80503e-05 0.0 
4.74266e-05 4.18535e-06 0.0 
0.0513528 -0.00120018 0.0 
0.0191711 0.00111993 0.0 
0 0 0.0 
1 0 0.0 
0.804158 0.0186993 0.0 
0.81626 -0.0530232 0.0 
1.00572 0.00161478 0.0 
1.00761 -0.0017176 0.0 
0 0 0.0 
0.0101492 -0.00107229 0.0 
0.24488 -0.00591263 0.0 
0.132112 -0.00990169 0.0 
0.910397 -0.0220614 0.0 
0.94324 -0.0160833 0.0 
1.00143 -0.0010596 0.0 
1.00828 -0.00272348 0.0 
1.09634 0.0878024 0.0 
0.761204 0.104017 0.0 
0.14602 -0.0182723 0.0 
0 0 0.0 
1.03232 -0.0969722 0.0 
0.924465 0.31671 0.0 
0.719993 0.309299 0.0 
0 0 0.0 
1.00567 0 0.0 
0.221522 0.00595468 0.0 
1.00859 -0.00266111 0.0 
0.0107126 -0.00201687 0.0 
0.857448 -0.0129398 0.0 
0.469691 0.0104525 0.0 
0.807849 -0.0157683 0.0 
1.00592 -0.00185838 0.0 
1.00604 -0.000239923 0.0 
1.00807 0.0055137 0.0 
1.00581 0.00104671 0.0 
0.0479097 -0.0050937 0.0 
-2.5406e-212 8.6111e-215 0.0 
0 0 0.0 
0 0 0.0 
0.94823 0.0166257 0.0 
1.00309 0.0104434 0.0 
0.347523 0.0151416 0.0 
0.725509 0.0673617 0.0 
1.00012 -0.000553488 0.0 
0.891411 0.0095025 0.0 
0.859695 -0.137453 0.0 
0.391455 0.00448204 0.0 
1.01194 0.00125986 0.0 
0.223686 -0.00573343 0.0 
0.98102 -0.0675505 0.0 
1.00367 0.00106761 0.0 
0.874317 -0.124893 0.0 
1.00058 -0.00220121 0.0 
0.912482 0.324272 0.0 
0.0727353 -0.01 0.0 
0.750267 0.107136 0.0 
0.0791182 -0.00154371 0.0 
0.751118 0.1313 0.0 
0.686339 0.104802 0.0 
0.431011 0.132769 0.0 
0.743992 0.0768806 0.0 
0.346064 0.0127158 0.0 
0.958666 -0.00293873 0.0 
0.610549 0.00321705 0.0 
0.31533 0.0121477 0.0 
0.293758 0.135127 0.0 
0.96378 -0.325231 0.0 
0.298846 0.0141015 0.0 
0.0861748 -0.00907303 0.0 
1.0054 0.000521772 0.0 
0.0803169 0.0455498 0.0 
7.53635e-05 2.12185e-05 0.0 
0.788446 -0.0521896 0.0 
0.187454 0.00487555 0.0 
1.00554 0.000398655 0.0 
0.970504 -0.0277224 0.0 
1.00588 0.00138792 0.0 
0.0153044 0.00067863 0.0 
1.03305 -0.000631566 0.0 
1.0002 -0.000574328 0.0 
1.00143 -0.00061115 0.0 
3.96013e-171 1.46738e-172 0.0 
1.0017 0.00171 0.0 
0.00470624 -0.000463189 0.0 
0.460111 0.013694 0.0 
0.981842 -0.0147863 0.0 
1.00782 0.000195241 0.0 
1.00675 -0.000359947 0.0 
0.823402 -0.0629877 0.0 
1.01039 0.0016887 0.0 
0.637485 0.00932762 0.0 
0.37937 0.00107601 0.0 
0.0025005 -0.000114722 0.0 
0.396202 -0.0358586 0.0 
1.00723 -0.00143428 0.0 
0 0 0.0 
1.00124 0 0.0 
0 0 0.0 
1.00575 0 0.0 
0.528836 0.307618 0.0 
1.00608 -0.00241515 0.0 
0 0 0.0 
0 0 0.0 
1.00749 -0.00495792 0.0 
0.85736 0.0120318 0.0 
1.008 0.00188213 0.0 
0.0802163 -0.000201916 0.0 
0.120224 -0.0171268 0.0 
0.694727 -0.0127907 0.0 
1.0061 -1.96849e-05 0.0 
0.360773 -0.149494 0.0 
0.993752 -0.00461936 0.0 
0 0 0.0 
0.822085 0.0170574 0.0 
1.00507 -0.000204858 0.0 
0.00732268 0.000567135 0.0 
1.08809 0.0642456 0.0 
0.604867 0.0330109 0.0 
0.0298163 0.000930687 0.0 
1.00229 0.00587171 0.0 
0.0183863 0.000630589 0.0 
0.970465 0.0433802 0.0 
1.00243 -0.00157038 0.0 
0.0749806 -0.00918864 0.0 
1.04602 0.210259 0.0 
0.0603451 -0.0120332 0.0 
0.97962 -0.0924996 0.0 
1.00384 -0.000581994 0.0 
0 0 0.0 
1.0071 -0.00143976 0.0 
0.00135637 5.31554e-05 0.0 
0.782571 -0.0542427 0.0 
0.095125 0.0209236 0.0 
1.00124 -0.00404345 0.0 
0.509007 -0.0370319 0.0 
0.422192 0.00275228 0.0 
1.00692 -0.00165017 0.0 
0.0314494 0.00227427 0.0 
0.299156 0.0273355 0.0 
1.0048 0.000829198 0.0 
0.0342901 0.0129745 0.0 
0.866541 -0.050505 0.0 
0.238752 -0.0247937 0.0 
0.961951 0.274955 0.0 
0.886636 0.0120147 0.0 
0.0138408 0.000212684 0.0 
1.00723 0.00121899 0.0 
1.00838 0.000304127 0.0 
1.00945 -0.00223478 0.0 
0.0198149 -0.00161973 0.0 
0.0234917 0.000990429 0.0 
1.00616 0.000515825 0.0 
0.199928 0.00438712 0.0 
1.00338 -0.0128778 0.0 
6.27266e-154 6.50924e-155 0.0 
0.212813 -0.0219096 0.0 
-2.42797e-42 -2.16844e-43 0.0 
0.586429 -0.0564724 0.0 
1.00722 0.000548364 0.0 
1.00149 -0.000554046 0.0 
0.532218 0.0023665 0.0 
0.930606 -0.339085 0.0 
0.182513 -0.0235896 0.0 
0.875565 -0.0771986 0.0 
0.02487 0.00166969 0.0 
0 0 0.0 
1.00741 0.000233102 0.0 
0.895749 -0.385311 0.0 
0 0 0.0 
0.154116 -0.0292437 0.0 
0.196018 0.00599811 0.0 
1.00723 0.000360316 0.0 
1.00599 -3.50041e-05 0.0 
1.00042 0 0.0 
0.0208527 0.000294562 0.0 
1.00328 0.000830612 0.0 
0.580117 -0.0485138 0.0 
0.996978 0.0236107 0.0 
1.00518 0.000138303 0.0 
1.00886 0.000493316 0.0 
1.00682 0.000453076 0.0 
0.374433 0.0149018 0.0 
1.00529 0.00311266 0.0 
0.38174 0.0176214 0.0 
1.00059 0.000419094 0.0 
0.95036 0.0268127 0.0 
0.999216 -0.0272665 0.0 
0.96581 -0.189602 0.0 
0 0 0.0 
1.00439 0.00193387 0.0 
0.951071 0.0614924 0.0 
1.00479 -0.000391048 0.0 
1.00443 0.00071397 0.0 
0.969583 -0.081596 0.0 
1.0646 0.0552902 0.0 
1.00069 0.0626892 0.0 
0.253353 -0.175505 0.0 
0.00301747 -0.000596373 0.0 
0.217779 0.00433199 0.0 
0 0 0.0 
1.00471 0.00208601 0.0 
1.00652 -0.000273694 0.0 
0.148094 -0.00218765 0.0 
1.00813 0.00180381 0.0 
0.88711 -0.218381 0.0 
0.995238 -0.00721371 0.0 
1.00505 0 0.0 
1.08752 0.0541314 0.0 
1.00152 0 0.0 
0.950081 0.0281596 0.0 
0.994638 -0.0164814 0.0 
1.02734 -0.100981 0.0 
0.817288 0.213215 0.0 
1.00588 0.000225752 0.0 
0.459829 0.00191891 0.0 
1.00175 -0.00388726 0.0 
1.00468 0.000107171 0.0 
0.0846964 0.00324905 0.0 
1.00003 0.000333953 0.0 
1.02544 -0.00755538 0.0 
0.950211 -0.259049 0.0 
6.45413e-128 -2.54723e-130 0.0 
0.412643 -0.0165714 0.0 
0.804476 0.205492 0.0 
0.78706 0.21744 0.0 
0.0576907 -0.0181944 0.0 
0.530737 0.0130293 0.0 
1.0049 0.00177241 0.0 
1.02388 0.082102 0.0 
0.675172 -0.0143465 0.0 
1.0037 -0.000667035 0.0 
1.00615 -0.00104443 0.0 
1.00751 -0.00128685 0.0 
1.00272 0 0.0 
1.00997 0.0239296 0.0 
0 0 0.0 
0.305273 0.0275406 0.0 
0.998495 -0.00208454 0.0 
0.992798 0.0588177 0.0 
0.993694 -0.00208003 0.0 
1.00567 0 0.0 
1.00045 -0.0013109 0.0 
1.00239 0.00250487 0.0 
0.0146431 -0.000953631 0.0 
0.94363 0.00198529 0.0 
1.00202 -0.0036373 0.0 
1.05939 0.225341 0.0 
1.00577 0.000381953 0.0 
1.00708 -2.94259e-05 0.0 
0 0 0.0 
1.00013 -0.000181644 0.0 
1.00666 0.0013306 0.0 
0 0 0.0 
0.0896482 0.00169161 0.0 
1.02128 -0.245338 0.0 
1.0058 -0.000324064 0.0 
1.00449 0.00116581 0.0 
1.00013 -0.00405536 0.0 
1.00551 -0.00023991 0.0 
1.0019 -0.000564718 0.0 
0.00160679 -6.98664e-05 0.0 
0.990584 -0.00333375 0.0 
0.942389 -0.0379771 0.0 
0.134545 0.00411219 0.0 
1.02493 0.0132788 0.0 
1.00078 0.00125706 0.0 
0.169573 -0.0201496 0.0 
0.747288 -0.0128622 0.0 
1.00417 -0.000239142 0.0 
0.42065 -0.00714027 0.0 
1.00151 -0.00297349 0.0 
1.00339 0 0.0 
0 0 0.0 
1.00149 -0.00460192 0.0 
1.00537 0.00105562 0.0 
0.771118 0.0206941 0.0 
1.03279 0.235157 0.0 
0 0 0.0 
0.878265 -0.367568 0.0 
1.00649 0.000823955 0.0 
0.767973 -0.0283137 0.0 
1.0024 -0.000541769 0.0 
0.898999 -0.208346 0.0 
1.0091 -0.00267437 0.0 
0.927539 0.0291018 0.0 
0 0 0.0 
1.00718 0.000401949 0.0 
0.503614 0.0140038 0.0 
1.00122 -0.00176465 0.0 
0.980911 0.00548312 0.0 
0.994832 -0.302434 0.0 
0.258827 -0.0279877 0.0 
1 0.000129045 0.0 
0.97759 0.0158068 0.0 
0.99379 -0.0039433 0.0 
0.147278 -0.0236507 0.0 
0 0 0.0 
0 0 0.0 
0.105449 0.00362342 0.0 
1.00128 -0.000186653 0.0 
0.312189 -0.00123236 0.0 
0.979146 -0.0463182 0.0 
1.00662 -0.280615 0.0 
0.892367 -0.0518589 0.0 
1.00528 0 0.0 
1.00579 -6.22547e-05 0.0 
5.99333e-06 3.48998e-07 0.0 
1.0066 -0.00300676 0.0 
1.00169 -0.000563729 0.0 
0.820387 -0.0214464 0.0 
0.805005 -0.413643 0.0 
0.0490409 -0.00322434 0.0 
0.892372 -0.319076 0.0 
1.00275 0.00233624 0.0 
0.577356 0.0710118 0.0 
0.312452 -0.112646 0.0 
0.0780967 0.00063285 0.0 
0.821787 -0.0217684 0.0 
0.996494 -0.00109747 0.0 
0.999969 -3.93293e-05 0.0 
6.72014e-08 3.44584e-10 0.0 
0 0 0.0 
0.00258878 -0.000489669 0.0 
0 0 0.0 
0 0 0.0 
0.884677 0.0252522 0.0 
1.00341 -0.000134152 0.0 
1.00004 -0.000234402 0.0 
1.0364 -0.253116 0.0 
0.844629 -0.0237154 0.0 
1.00815 -0.00188959 0.0 
1.00158 0.002442 0.0 
0.980516 0.00161479 0.0 
1.00789 -0.00369147 0.0 
0.91985 -0.025131 0.0 
0.819451 0.126839 0.0 
1.00608 0.00237705 0.0 
1.0034 -0.00123496 0.0 
1.00672 0.00118878 0.0 
0.739772 -0.0362707 0.0 
1.00841 -0.00206531 0.0 
1.02896 -0.0557208 0.0 
1.07101 0.153353 0.0 
1.00622 0.000887105 0.0 
0.696087 -0.0053148 0.0 
0.333336 0.00512959 0.0 
0.348145 -0.00496856 0.0 
0.0947563 0.00276808 0.0 
0.499856 -0.352574 0.0 
0 0 0.0 
1.00397 0.0022503 0.0 
1.0013 0.00540442 0.0 
0.999497 -5.69025e-05 0.0 
1.00646 -0.000140086 0.0 
1.0026 -0.00311479 0.0 
0.162254 0.0041341 0.0 
1.00394 0.00278773 0.0 
0.00782393 0.00125229 0.0 
0.543798 0.0100348 0.0 
0.299704 0.14431 0.0 
1.00682 0.000520962 0.0 
0.314734 0.0437455 0.0 
0.709885 -0.005785 0.0 
0.123282 0.0730388 0.0 
1.00719 0.000328829 0.0 
0.000259683 -6.31251e-05 0.0 
0.713462 0.0218062 0.0 
1.0049 -0.00195898 0.0 
0.019442 -0.00031273 0.0 
4.7574e-08 2.21875e-09 0.0 
1.00475 0.000323969 0.0 
1.00822 0.000733361 0.0 
0.984959 0.0443894 0.0 
0.175726 -0.0248114 0.0 
0.251489 -0.0480275 0.0 
1.00759 -0.00235117 0.0 
0.265919 -0.029749 0.0 
1.00746 -0.00171429 0.0 
0.993601 0.0066843 0.0 
1.00006 -0.000443962 0.0 
1.00617 -0.000315266 0.0 
1.00608 -0.000211763 0.0 
0.037613 -0.0063081 0.0 
1.00506 -0.000156937 0.0 
0.999992 2.89903e-05 0.0 
1.00444 -0.000238817 0.0 
1.00447 -0.005489 0.0 
0.944514 0.00101135 0.0 
1.01707 0.0173425 0.0 
0.0138316 0.000791019 0.0 
0.0217882 0.000290965 0.0 
0.0200993 -0.00222432 0.0 
0.996024 0.0233302 0.0 
0 0 0.0 
0.706601 -0.0460334 0.0 
0.190508 0.0130004 0.0 
1.00201 -0.00468662 0.0 
1.00908 -0.00334022 0.0 
0.130356 -0.0174894 0.0 
0.246128 -0.0108445 0.0 
0.944939 -0.0335963 0.0 
0.0372909 0.000853853 0.0 
0.0874241 0.00591534 0.0 
1.00001 -0.000169448 0.0 
1.00867 -0.00146699 0.0 
1.02028 0.219709 0.0 
1.00663 -0.000620107 0.0 
1.00583 0 0.0 
1.00723 -0.00046833 0.0 
1.00925 -0.00160706 0.0 
1.01101 -0.00393036 0.0 
1.01513 0.0208047 0.0 
1.00221 0.000778313 0.0 
1.00735 -0.00148934 0.0 
1.00057 0.0014424 0.0 
1.00345 0.000465633 0.0 
1.00579 0.00171822 0.0 
1.00722 -0.00115496 0.0 
1.00166 0.000228885 0.0 
0.407447 0.00553204 0.0 
0.18166 0.0616351 0.0 
1.01341 -0.00626717 0.0 
0.784428 0.34272 0.0 
0.00711049 -0.00119843 0.0 
0 0 0.0 
0.186051 -0.0241664 0.0 
0.0184704 0.00037851 0.0 
0.995768 -0.000195955 0.0 
0.754864 0.011642 0.0 
0.0374213 0.00766354 0.0 
1.00021 -0.000713489 0.0 
0.0162513 0.000466882 0.0 
1.00296 0.204774 0.0 
1.85991e-07 2.35871e-07 0.0 
1.00371 0.00223189 0.0 
1.00585 -1.32119e-05 0.0 
0.228749 0.0228981 0.0 
0.452889 -0.307343 0.0 
1.00815 0.00486638 0.0 
1.00754 0.000325671 0.0 
0.815459 -0.0265891 0.0 
1.00699 0.000557777 0.0 
1.00755 0.00084991 0.0 
1.08046 -0.134886 0.0 
1.00586 -3.03894e-05 0.0 
1.00633 -0.000876128 0.0 
0.0398015 0.00143497 0.0 
1.00445 -0.00132318 0.0 
1.03025 0.0128314 0.0 
0.0638806 0.00176507 0.0 
0.0646851 -0.00212712 0.0 
1.00689 0.000998386 0.0 
1.07244 0.0746425 0.0 
0.906115 -0.0266588 0.0 
0.398199 0.0198356 0.0 
0 0 0.0 
0.802573 0.319154 0.0 
0.730372 -0.0167033 0.0 
1.00498 -0.000510523 0.0 
1.00613 0.000685444 0.0 
1.00012 0.000783737 0.0 
0.882041 0.244101 0.0 
0.266282 -0.0109647 0.0 
0.999977 6.95415e-06 0.0 
1.00495 0.000411947 0.0 
0.902934 -0.0039997 0.0 
0.0204434 -0.00280029 0.0 
0 0 0.0 
1.12199 0.081742 0.0 
0.692571 0.000783555 0.0 
0.644503 -0.027119 0.0 
0.0148931 0.00092891 0.0 
0.0899309 0.0014334 0.0 
0.96365 -0.282986 0.0 
0.0124975 0.000138324 0.0 
0.961752 -0.0447035 0.0 
1.00558 -0.000527803 0.0 
0 0 0.0 
0.212626 0.0676365 0.0 
0.924749 -0.305827 0.0 
0.997326 -0.000780057 0.0 
0.999357 0.000718796 0.0 
1.00662 0.000631251 0.0 
0 0 0.0 
1.00002 -0.000183664 0.0 
1.00119 -0.00492297 0.0 
1.00005 -0.00508391 0.0 
1.00682 0.00151205 0.0 
1.00082 -0.00177464 0.0 
0 0 0.0 
1.03054 -0.0260242 0.0 
1.00605 -0.000500983 0.0 
1.00024 0.000356562 0.0 
0.999699 0.00505359 0.0 
1.00697 0.000886152 0.0 
1.00482 -0.000269263 0.0 
1.01012 0.00417644 0.0 
0.407802 0.0267385 0.0 
1.01819 0.0100426 0.0 
1.0058 -0.0010828 0.0 
0.635956 0.0146668 0.0 
0.977213 0.00155372 0.0 
0.704955 0.0906272 0.0 
0.00537919 8.34864e-06 0.0 
1.00135 0.00283579 0.0 
0.00655982 -0.000374204 0.0 
0.0129367 -0.00244149 0.0 
-1.90903e-60 -1.23323e-61 0.0 
1.00861 -0.00241961 0.0 
1.00402 0 0.0 
1.00602 0.000507631 0.0 
1.00883 0.00194608 0.0 
1.00002 0.000301596 0.0 
0 0 0.0 
1.00633 0.00102714 0.0 
1.007 -0.000645051 0.0 
1.00621 -0.000400832 0.0 
0 0 0.0 
1.00805 -0.00711463 0.0 
1.00538 -0.000166307 0.0 
0.184331 -0.0201914 0.0 
0.297818 0.0103223 0.0 
1.01301 -0.00560602 0.0 
0.0295386 -0.00452279 0.0 
0.96232 -0.0565747 0.0 
0.384262 -0.0108455 0.0 
1.00771 -0.00207905 0.0 
0.0284919 0.0025023 0.0 
0.283927 -0.0409432 0.0 
0.0313297 -0.00323932 0.0 
0.99912 0.000425123 0.0 
0.0395129 0.000416082 0.0 
0 0 0.0 
0.833422 0.117003 0.0 
0.0461205 0.00191624 0.0 
0.119232 0.0325008 0.0 
1.0037 -0.000302166 0.0 
0.332017 -0.00587895 0.0 
1.00484 0.000175162 0.0 
0 0 0.0 
0.805968 0.0546501 0.0 
1 0.000231868 0.0 
0.20361 0.0173765 0.0 
0.166504 0.0505294 0.0 
1.00104 -0.00132838 0.0 
0.941863 0.268268 0.0 
1.00394 0.000251952 0.0 
0.0992427 0.00216177 0.0 
1.00079 0 0.0 
0.260263 0.0228833 0.0 
1.00637 -0.000512891 0.0 
0.999795 -0.000811344 0.0 
1.01341 -0.000155928 0.0 
1.00635 0.00133112 0.0 
0.86885 -0.0164003 0.0 
0.862316 0.0304781 0.0 
1.0076 0.000812158 0.0 
0.0488369 0.00115707 0.0 
0.0306717 -0.0168071 0.0 
1.10627 0.0950552 0.0 
1.00587 -0.00380285 0.0 
0.812717 0.014096 0.0 
0.00833052 -0.000901308 0.0 
0.0469714 -0.00259989 0.0 
1.00833 0.00133135 0.0 
0.970627 -0.0012019 0.0 
0.00314328 -0.000778752 0.0 
1.00742 0.000351316 0.0 
1.00585 -0.0450025 0.0 
1.00713 0.000868111 0.0 
1.00568 0.0004882 0.0 
0.974784 0.00179715 0.0 
1.00504 -0.00247535 0.0 
0.723146 -0.0308671 0.0 
0.998894 0.00447661 0.0 
1.00399 0.00168093 0.0 
1.0052 -0.0019979 0.0 
1.00173 -0.000505204 0.0 
0.108101 -0.015292 0.0 
1.00658 -0.000788084 0.0 
1.00568 0.000300207 0.0 
1.00593 -6.96366e-05 0.0 
1.00468 -0.00283364 0.0 
1.01331 0.00362211 0.0 
0.406147 -0.097866 0.0 
1.00115 -0.00230698 0.0 
0.0329222 -0.00336681 0.0 
0.01408 -0.002443 0.0 
0.022979 -0.00300812 0.0 
0.493527 -0.0224377 0.0 
1.12531 0.0845652 0.0 
0.0248446 0.00097633 0.0 
1.00615 0.000974996 0.0 
0.0778771 -0.00154966 0.0 
1 -0.000951808 0.0 
1 0 0.0 
0.982409 0.139697 0.0 
1.00604 0.00144998 0.0 
0.997599 0.00165784 0.0 
1.0057 -0.000247638 0.0 
1.00599 -0.000973657 0.0 
0.955457 0.0281627 0.0 
1.03998 -0.00266629 0.0 
1.00739 -0.000803511 0.0 
1.00622 0.00110513 0.0 
0 0 0.0 
1.00315 -0.00378457 0.0 
1.00276 -0.000214376 0.0 
0.70575 0.0132483 0.0 
0 0 0.0 
0 0 0.0 
0.00319159 -0.00061983 0.0 
0.0143152 0.000954284 0.0 
1.00541 -0.0012699 0.0 
1.00001 -0.000260088 0.0 
0.903572 0.0631211 0.0 
0.861458 0.0313426 0.0 
0.0277814 -5.23531e-05 0.0 
1.00759 0.000379733 0.0 
1.00875 0.000155455 0.0 
0.262948 0.18753 0.0 
1.04076 0.0239664 0.0 
0.561914 -0.0357172 0.0 
0.0608371 -0.013182 0.0 
7.34224e-06 -5.54555e-07 0.0 
1.00703 0.000620995 0.0 
0.402017 0.00500343 0.0 
0.273965 0.00498039 0.0 
0.4318 0.00798087 0.0 
0 0 0.0 
0.993025 -0.00705924 0.0 
1.00668 -0.00203556 0.0 
1.0059 -3.23612e-05 0.0 
1.00385 -0.00240048 0.0 
1.00585 -0.00013634 0.0 
1.00124 -0.00287197 0.0 
1.0038 -0.00182577 0.0 
0.181637 0.000385611 0.0 
0.30089 0.00832717 0.0 
0 0 0.0 
1.00391 0.0014782 0.0 
1.00411 -0.00180774 0.0 
0.388621 0.00545486 0.0 
1.00433 -0.000246307 0.0 
0.0551737 -0.00479479 0.0 
0.501769 -0.0128238 0.0 
0.0370902 -0.0039621 0.0 
1.00272 -0.00132095 0.0 
0.33813 0.0545481 0.0 
0.893277 0.0140308 0.0 
1.00352 -0.00363813 0.0 
1.00008 -0.000691676 0.0 
1.00436 -0.00297702 0.0 
1.0041 -0.000366224 0.0 
0.927551 -0.164236 0.0 
1.00128 -0.00668734 0.0 
0.112542 0.0152598 0.0 
0 0 0.0 
1.01243 0.0261365 0.0 
0.00160013 -0.00047656 0.0 
0.417394 0.0019602 0.0 
1.00614 -0.000447094 0.0 
0 0 0.0 
0.433837 -0.00113539 0.0 
1.00795 -0.000181314 0.0 
-1.40291e-62 4.30999e-63 0.0 
0.99988 0.000976666 0.0 
1.00595 -0.000374091 0.0 
1.00353 0.00126243 0.0 
1.00414 -0.00252226 0.0 
1.00775 0.00242073 0.0 
1.00086 0.0168777 0.0 
0.91286 -0.0162168 0.0 
-5.25207e-56 -4.28616e-57 0.0 
1.00209 -0.00186797 0.0 
1.0067 -0.000735019 0.0 
1.00717 0.000742433 0.0 
1.01076 -0.000515677 0.0 
0.0363903 -0.00713534 0.0 
0.333834 -0.00159347 0.0 
0.353901 -0.00177443 0.0 
1.00545 0.000271873 0.0 
0.00917276 -0.0010017 0.0 
1.00684 0.000122093 0.0 
0.787949 0.141183 0.0 
0.886829 -0.0210816 0.0 
1.00589 -0.00061958 0.0 
1.0061 0.000324912 0.0 
0.300369 0.126179 0.0 
1.00729 0.000221242 0.0 
1.00007 -0.000222905 0.0 
0.346546 0.000993721 0.0 
1.05805 0.0953521 0.0 
0.939224 0.0504649 0.0 
0.794422 -0.00128631 0.0 
0.999832 -0.000285368 0.0 
0.997672 0.00434704 0.0 
0.992723 -0.00195596 0.0 
1.00001 -0.000133333 0.0 
0.997488 0.0123364 0.0 
0.00867858 -0.00148773 0.0 
1.00519 0.00144857 0.0 
1.00592 1.90071e-05 0.0 
1.00322 0.0022038 0.0 
0.0396693 0.00764021 0.0 
0.0801951 0.00125833 0.0 
0.999989 0.000294564 0.0 
1.00535 0.000103164 0.0 
0.835592 -0.0515449 0.0 
1 -0.000254441 0.0 
0.322938 -0.234632 0.0 
0.389855 0.0862369 0.0 
0.169412 0.0583511 0.0 
0.0125374 0.000286937 0.0 
1.00242 0.00980465 0.0 
0.402802 0.031512 0.0 
1.0018 -0.000776527 0.0 
1.00815 0.0020134 0.0 
0.0259325 0.00122045 0.0 
1.00337 -0.000493213 0.0 
0.0519711 0.00163087 0.0 
0 0 0.0 
1.00332 -0.00238961 0.0 
0.911068 -0.05631 0.0 
0.23603 0.00418862 0.0 
0.987493 0.00221468 0.0 
0.481908 0.067434 0.0 
0.999997 -0.000438676 0.0 
0.970952 -0.0376426 0.0 
0.9965 0.00235148 0.0 
0.885877 -0.0548781 0.0 
0.0151698 -0.0281174 0.0 
1.00495 0.000312993 0.0 
1.00455 -0.000972572 0.0 
0.00702419 -0.000721623 0.0 
1.00606 -0.00109352 0.0 
0.0254562 0.00152443 0.0 
0.914784 -0.373149 0.0 
1.00687 0.000259105 0.0 
1.00289 -0.00339191 0.0 
1.00265 -0.000637688 0.0 
1.00234 0.148249 0.0 
0.00648703 -0.00132178 0.0 
1.00506 0.00172601 0.0 
1.01005 -0.00183632 0.0 
1.00013 -0.000258853 0.0 
5.94737e-05 5.79641e-07 0.0 
0.620764 0.0268953 0.0 
1.00397 -0.00046195 0.0 
0.999762 0.0018524 0.0 
1.00565 0.000558309 0.0 
1.00444 9.1402e-05 0.0 
0.790996 0.0018678 0.0 
1.00553 0 0.0 
0.88384 -0.0207207 0.0 
0.124105 -0.0106895 0.0 
0.00348995 -0.000699648 0.0 
1.00429 0.00160824 0.0 
0.441036 -0.0162049 0.0 
0.698485 0.00429097 0.0 
1.1167 0.0440317 0.0 
0.880051 0.12512 0.0 
0.96602 0.0033688 0.0 
1.00723 0.000592086 0.0 
0.886276 0.0154961 0.0 
1.00679 -0.00103978 0.0 
0 0 0.0 
0.39579 -0.0096198 0.0 
0.0809094 0.054957 0.0 
0.0255798 -0.00243902 0.0 
1.0115 -0.0134746 0.0 
0.975849 -0.00624657 0.0 
1.00568 -0.000707615 0.0 
1.00426 0.00259293 0.0 
1.00332 0 0.0 
1.00558 0.000256271 0.0 
0.914696 0.0302599 0.0 
1.00588 3.20886e-05 0.0 
0.656606 0.0110351 0.0 
0.612334 -0.431474 0.0 
1.00591 -0.000503756 0.0 
1.00552 -0.000361845 0.0 
1.00429 0.00186874 0.0 
1.00124 -0.0022613 0.0 
0.904567 -0.0944387 0.0 
0.0470502 -0.0079995 0.0 
0.600178 0.0141692 0.0 
1.14495e-127 1.52551e-129 0.0 
1.00711 -0.000566935 0.0 
1.0038 -0.00172985 0.0 
0.974359 -0.0229613 0.0 
0.994313 0.00262554 0.0 
0.599383 -0.000181068 0.0 
0 0 0.0 
0.390404 0.138466 0.0 
1.00097 -0.00085165 0.0 
1.00012 -0.00068586 0.0 
0.939914 -0.283542 0.0 
0.999478 0.000173547 0.0 
9.96015e-137 2.38805e-137 0.0 
0.157219 0.00866594 0.0 
1.00518 -0.00336312 0.0 
1.00463 -0.00347366 0.0 
1.00358 0.00443826 0.0 
0.999923 1.01598e-05 0.0 
0.519161 -0.0464554 0.0 