<VTKFile type="UnstructuredGrid" version="0.1" byte_order="LittleEndian">
  <UnstructuredGrid>
    <Piece NumberOfPoints="13505" NumberOfCells="26820">
      <Points>
        <DataArray type = "Float64" NumberOfComponents="3" format="ascii">
0 0 0.0 
14 0 0.0 
14 8 0.0 
0 8 0.0 
0.383893 2.91152 0.0 
4.51189 3.98643 0.0 
4.90839 4.00372 0.0 
4.07501 3.94306 0.0 
4.00964 3.98933 0.0 
1.33311 1.459 0.0 
1.77675 6.77593 0.0 
4.07057 3.9639 0.0 
4.53824 7.43039 0.0 
13.1817 2.98063 0.0 
3.98741 4.04054 0.0 
3.98768 4.02653 0.0 
3.86564 4.12519 0.0 
4.21339 4.02989 0.0 
5.16077 4.06746 0.0 
9.69483 7.24214 0.0 
4.98619 3.93198 0.0 
4.47538 4.03375 0.0 
4.67405 4.10923 0.0 
4.1789 4.0308 0.0 
4.80484 4.03022 0.0 
4.61584 4.00791 0.0 
12.1265 0 0.0 
13.2903 7.45798 0.0 
3.90882 3.9602 0.0 
4.07155 4.09149 0.0 
3.31161 1.01031 0.0 
4.13489 4.05432 0.0 
11.1865 7.25481 0.0 
4.41861 3.99517 0.0 
13.5337 6.38239 0.0 
4.5032 4.00668 0.0 
14 4.58016 0.0 
0 3.36284 0.0 
4.93697 3.93496 0.0 
4.08813 4.0538 0.0 
4.47103 4.06158 0.0 
10.1734 4.4195 0.0 
4.0273 4.01367 0.0 
4.538 4.03291 0.0 
4.52624 3.99774 0.0 
4.62342 4.01415 0.0 
4.19011 4.04952 0.0 
5.17517 4.1161 0.0 
4.73454 4.01964 0.0 
4.30141 4.04146 0.0 
2.37857 1.61641 0.0 
4.12607 4.05951 0.0 
4.51883 3.99789 0.0 
4.2483 4.03635 0.0 
4.0955 3.94899 0.0 
4.03444 4.04627 0.0 
4.00163 4.02959 0.0 
4.02005 3.99731 0.0 
5.23503 8 0.0 
7.6398 2.6807 0.0 
3.22025 3.32346 0.0 
11.7283 4.38874 0.0 
5.35828 4.09214 0.0 
3.88393 4.01426 0.0 
8.91842 0.967714 0.0 
12.2255 4.00812 0.0 
4.08298 4.00762 0.0 
4.35473 4.03787 0.0 
1.1914 3.57636 0.0 
4.33602 4.03726 0.0 
13.1592 5.2511 0.0 
4.15825 4.03374 0.0 
4.04672 4.0202 0.0 
4.94501 3.90266 0.0 
4.27776 3.99028 0.0 
4.54772 3.97659 0.0 
3.96947 4.02134 0.0 
4.21303 3.97045 0.0 
5.28835 3.91341 0.0 
3.96297 3.96024 0.0 
4.09803 3.98339 0.0 
9.89876 3.93505 0.0 
5.2927 4.05862 0.0 
4.11692 3.94964 0.0 
4.00773 4.00001 0.0 
3.95785 3.95439 0.0 
4.09065 3.95069 0.0 
4.02972 4.04518 0.0 
4.00487 4.00528 0.0 
3.97141 4.03046 0.0 
12.9422 5.39236 0.0 
3.97561 4.03322 0.0 
3.97816 4.02179 0.0 
4.04633 4.03304 0.0 
3.96767 4.02507 0.0 
4.53971 3.97638 0.0 
4.51288 3.99864 0.0 
4.62546 3.9826 0.0 
4.54225 3.97864 0.0 
9.70352 1.23095 0.0 
7.16027 0.69146 0.0 
4.54991 3.98013 0.0 
4.11785 4.02706 0.0 
4.73521 7.52615 0.0 
4.45146 4.01062 0.0 
4.52549 3.98021 0.0 
1.48228 7.4999 0.0 
8.43409 3.16574 0.0 
3.93051 4.29295 0.0 
9.54961 6.99546 0.0 
4.84809 6.69312 0.0 
4.76297 3.98343 0.0 
3.88277 3.5333 0.0 
5.42969 4.67027 0.0 
6.95088 7.06331 0.0 
6.98728 5.60342 0.0 
4.31301 3.99243 0.0 
6.85323 7.27439 0.0 
6.37297 2.73989 0.0 
6.50541 6.65271 0.0 
4.0914 3.96216 0.0 
4.00414 3.99309 0.0 
5.20281 3.96498 0.0 
13.6945 7.80328 0.0 
4.84915 4.03246 0.0 
4.65935 4.04515 0.0 
4.01079 3.9997 0.0 
4.05312 3.99197 0.0 
13.7435 8 0.0 
4.41775 3.99642 0.0 
6.67367 0 0.0 
4.00932 4.01975 0.0 
6.82471 4.26136 0.0 
4.20354 4.03712 0.0 
4.1283 4.05439 0.0 
4.48103 4.01701 0.0 
4.30197 4.00446 0.0 
11.4575 2.65157 0.0 
4.90953 3.97583 0.0 
10.0312 4.5454 0.0 
13.1055 3.48759 0.0 
6.22735 7.50315 0.0 
13.3135 3.86226 0.0 
4.401 4.69811 0.0 
4.14276 3.99872 0.0 
8.95603 7.57132 0.0 
4.22222 4.09636 0.0 
3.98122 4.01031 0.0 
4.00295 3.9374 0.0 
9.65423 4.26818 0.0 
10.6153 7.62373 0.0 
1.21548 8 0.0 
14 3.80888 0.0 
4.055 4.2159 0.0 
4.08943 3.95494 0.0 
4.54778 4.01674 0.0 
9.95518 3.59841 0.0 
4.18074 4.21382 0.0 
4.08463 4.01547 0.0 
11.22 2.61787 0.0 
7.99609 6.1415 0.0 
4.09428 3.96323 0.0 
4.44183 3.99687 0.0 
2.89316 5.49873 0.0 
4.18332 3.96996 0.0 
4.88498 4.06106 0.0 
4.05827 4.04837 0.0 
4.30095 6.55577 0.0 
12.0372 1.49526 0.0 
7.38969 7.86787 0.0 
11.7855 3.46603 0.0 
3.45023 4.08857 0.0 
4.05399 4.05242 0.0 
5.11537 3.91723 0.0 
2.41657 7.83798 0.0 
0.139724 5.28321 0.0 
6.38052 3.13775 0.0 
5.9291 5.15993 0.0 
11.3311 3.20721 0.0 
4.02321 3.97317 0.0 
9.4176 1.73395 0.0 
4.33917 4.03838 0.0 
5.24537 4.1668 0.0 
4.80861 4.52422 0.0 
4.46368 4.04155 0.0 
4.49223 4.00862 0.0 
4.06062 3.97377 0.0 
8.35832 2.9685 0.0 
13.4699 7.45697 0.0 
13.6044 3.62433 0.0 
4.01229 3.97705 0.0 
4.27411 4.0429 0.0 
4.21367 3.97319 0.0 
4.44582 3.9917 0.0 
4.09808 4.03387 0.0 
4.48302 3.99874 0.0 
4.00577 3.97873 0.0 
6.20338 4.33217 0.0 
4.55691 3.99871 0.0 
6.11944 4.71929 0.0 
7.62224 2.88267 0.0 
2.77497 7.51281 0.0 
4.2517 4.04255 0.0 
4.43944 3.99765 0.0 
4.96928 3.97464 0.0 
5.99012 4.04484 0.0 
7.12026 6.70684 0.0 
0.845864 1.62601 0.0 
5.8599 3.0813 0.0 
9.40278 3.77708 0.0 
13.2094 4.45026 0.0 
4.20802 4.04697 0.0 
6.64238 0.26606 0.0 
5.0604 3.97687 0.0 
4.6103 3.91602 0.0 
4.50105 4.42739 0.0 
4.03796 3.98522 0.0 
4.11575 4.03408 0.0 
4.5671 3.97265 0.0 
4.20274 4.07949 0.0 
5.18268 3.9437 0.0 
12.5015 1.14918 0.0 
4.09797 3.95385 0.0 
4.23052 4.09368 0.0 
4.20868 4.08388 0.0 
11.0938 3.73728 0.0 
3.99816 4.00816 0.0 
4.21025 4.03415 0.0 
4.54088 4.00707 0.0 
10.5319 2.82151 0.0 
4.05642 4.03077 0.0 
8.94235 3.15878 0.0 
3.98799 3.95955 0.0 
0.348252 3.38742 0.0 
8.82235 8 0.0 
4.23781 4.09881 0.0 
4.16892 4.04593 0.0 
4.69512 3.9114 0.0 
4.0617 4.07957 0.0 
4.06329 4.04721 0.0 
4.3873 4.07949 0.0 
4.18805 3.96826 0.0 
11.2705 7.61787 0.0 
4.50456 3.99831 0.0 
11.8107 0.651755 0.0 
0.417479 6.31883 0.0 
3.5816 4.1995 0.0 
0.332338 5.15195 0.0 
4.09178 4.02837 0.0 
4.67274 5.32739 0.0 
3.98977 4.04663 0.0 
3.99153 4.04254 0.0 
4.57553 4.01147 0.0 
9.65721 5.90637 0.0 
4.93652 4.08387 0.0 
5.05063 5.17274 0.0 
3.97296 4.00674 0.0 
11.3714 7.19716 0.0 
9.192 5.81999 0.0 
13.5609 4.50893 0.0 
3.53429 0 0.0 
4.67134 3.89044 0.0 
4.08953 4.02996 0.0 
4.14091 4.04918 0.0 
2.30378 3.03595 0.0 
4.55143 4.02795 0.0 
4.26138 4.02454 0.0 
7.40997 8 0.0 
9.90278 1.9712 0.0 
2.86414 6.59491 0.0 
7.95608 7.77452 0.0 
9.9204 3.84008 0.0 
6.73412 3.55133 0.0 
7.34292 5.19319 0.0 
4.02769 3.86751 0.0 
6.78993 2.13526 0.0 
0.898692 6.20579 0.0 
0.846754 0.565038 0.0 
3.99586 4.00736 0.0 
4.07219 4.0344 0.0 
6.77474 0.61388 0.0 
4.02904 3.9664 0.0 
7.59973 7.22298 0.0 
12.6277 1.80732 0.0 
0.262648 3.59523 0.0 
5.85073 0.410811 0.0 
13.0902 7.46595 0.0 
4.01845 4.01173 0.0 
11.4878 0.917753 0.0 
4.04515 4.02697 0.0 
4.04606 4.02962 0.0 
4.10975 3.9339 0.0 
4.02586 3.98561 0.0 
4.51225 4.03393 0.0 
3.96066 4.00697 0.0 
4.12609 4.06211 0.0 
4.96395 4.01931 0.0 
13.1661 5.68046 0.0 
13.7895 0 0.0 
4.10795 4.02897 0.0 
7.56457 6.83703 0.0 
11.4357 2.10385 0.0 
2.66772 5.1655 0.0 
3.77162 4.00815 0.0 
4.00791 4.0033 0.0 
4.0088 3.9805 0.0 
9.75515 2.36072 0.0 
4.02687 4.06321 0.0 
4.19449 4.02019 0.0 
4.02947 3.97325 0.0 
4.54803 4.00405 0.0 
4.6454 3.91884 0.0 
4.01129 4.00596 0.0 
8.6802 3.80876 0.0 
1.33689 0.42959 0.0 
4.55549 3.99976 0.0 
4.00353 3.9915 0.0 
4.01755 3.97046 0.0 
4.52386 4.04096 0.0 
0.195775 6.68759 0.0 
1.47689 3.96699 0.0 
6.42419 4.18044 0.0 
4.76354 3.99674 0.0 
4.05373 4.0206 0.0 
4.0593 4.0207 0.0 
3.84428 4.30614 0.0 
4.54396 3.89411 0.0 
4.11868 3.97589 0.0 
4.15516 3.94365 0.0 
4.01695 3.96353 0.0 
4.92836 0.227572 0.0 
8.32777 8 0.0 
13.8474 2.95036 0.0 
7.19396 5.74117 0.0 
4.19272 3.98815 0.0 
4.51883 4.01095 0.0 
5.06461 4.08435 0.0 
4.00437 3.9841 0.0 
0.861823 0.804062 0.0 
4.0134 3.97877 0.0 
3.03193 6.72582 0.0 
4.1214 4.03972 0.0 
4.01079 3.9893 0.0 
10.9658 2.91172 0.0 
4.36156 4.08272 0.0 
2.48952 3.59766 0.0 
4.32621 3.9928 0.0 
7.66491 7.40727 0.0 
4.20001 4.03326 0.0 
12.5004 4.90846 0.0 
4.21639 4.03358 0.0 
3.92685 3.99783 0.0 
3.89766 4.03669 0.0 
11.5792 7.84461 0.0 
0.551344 1.2516 0.0 
4.02575 3.96118 0.0 
10.2682 5.93402 0.0 
6.49849 5.21743 0.0 
4.17446 4.78514 0.0 
4.47293 4.03853 0.0 
3.82629 4.89113 0.0 
4.05643 4.08846 0.0 
4.47415 3.99666 0.0 
4.02163 4.01837 0.0 
11.8351 6.74811 0.0 
12.3043 5.26106 0.0 
4.1127 3.96242 0.0 
4.33297 3.99319 0.0 
4.15116 3.93854 0.0 
4.13176 4.07898 0.0 
10.2186 2.28825 0.0 
4.53294 4.00653 0.0 
4.85957 4.01386 0.0 
4.85208 4.04382 0.0 
4.00279 3.99128 0.0 
4.05385 4.00986 0.0 
3.53758 3.96284 0.0 
4.08585 4.00485 0.0 
6.32476 7.00417 0.0 
12.5996 5.63737 0.0 
4.64409 4.00438 0.0 
4.15951 4.04428 0.0 
3.85377 3.84163 0.0 
5.74106 5.24436 0.0 
6.60362 4.13153 0.0 
2.38712 1.20485 0.0 
4.00045 4.00043 0.0 
1.67428 8 0.0 
4.26617 4.04413 0.0 
4.01037 4.03325 0.0 
4.45612 4.021 0.0 
3.96806 4.01296 0.0 
11.0968 5.75296 0.0 
4.55406 3.99831 0.0 
4.17599 3.98561 0.0 
10.9441 5.59852 0.0 
10.2024 1.42429 0.0 
4.04678 4.09659 0.0 
4.5467 4.03146 0.0 
4.08412 4.04566 0.0 
4.45621 3.99608 0.0 
4.53595 4.04072 0.0 
7.20657 5.05296 0.0 
4.61918 3.98897 0.0 
4.0052 4.0005 0.0 
13.167 3.69177 0.0 
4.53295 4.01509 0.0 
5.35653 3.74718 0.0 
5.30644 0.173765 0.0 
0.198711 3.79297 0.0 
4.72583 0.194576 0.0 
3.90471 2.31823 0.0 
7.63917 0.511699 0.0 
7.36099 6.27735 0.0 
4.11982 4.04077 0.0 
10.7281 8 0.0 
4.73668 3.89169 0.0 
4.04877 3.98924 0.0 
3.96886 4.00175 0.0 
4.64006 3.99672 0.0 
4.36119 4.03445 0.0 
4.49002 4.01506 0.0 
3.79815 4.13032 0.0 
4.82507 4.1106 0.0 
4.05208 4.03029 0.0 
9.64772 0.994062 0.0 
0.347962 1.57688 0.0 
4.0219 3.98466 0.0 
8.57985 3.52189 0.0 
7.00233 6.47926 0.0 
7.78364 0 0.0 
6.32437 6.34013 0.0 
13.8045 1.5263 0.0 
5.62592 4.80931 0.0 
4.7383 3.87602 0.0 
10.4393 2.36192 0.0 
4.4323 4.02656 0.0 
1.64832 6.43608 0.0 
13.7604 0.5867 0.0 
4.24795 3.92322 0.0 
4.20833 4.10668 0.0 
2.21546 4.23608 0.0 
4.25841 3.96952 0.0 
4.03014 4.02376 0.0 
4.07396 4.02843 0.0 
4.01504 3.99463 0.0 
4.26184 4.59518 0.0 
4.38508 4.0305 0.0 
10.6631 4.75828 0.0 
1.32628 2.55488 0.0 
4.29242 4.04042 0.0 
4.10776 4.04501 0.0 
12.8107 4.90081 0.0 
4.51664 4.0127 0.0 
7.05343 0.323278 0.0 
4.304 3.99183 0.0 
3.97181 4.08617 0.0 
7.14156 0.150746 0.0 
4.04847 3.98514 0.0 
11.681 7.45325 0.0 
4.53123 4.02551 0.0 
0 0.779097 0.0 
3.89235 3.84687 0.0 
8.64936 2.61471 0.0 
9.46048 3.26649 0.0 
4.36416 4.03508 0.0 
7.18228 0.487344 0.0 
12.4043 7.38649 0.0 
4.47017 0.936125 0.0 
4.14792 4.04356 0.0 
4.04015 4.02715 0.0 
4.22688 4.04602 0.0 
9.40388 3.06557 0.0 
10.1578 0.327018 0.0 
[...]
<PointData>
  <DataArray type = "Float64" Name="Vitesse" NumberOfComponents="3" format="ascii">
1 0 0.0 
1.00486 0 0.0 
1.00346 0 0.0 
1 0 0.0 
0.999969 -0.000137205 0.0 
0.186193 0.00470504 0.0 
0.379281 0.00108747 0.0 
1.08047 -0.134222 0.0 
0.360692 -0.149483 0.0 
1.00021 -0.000715038 0.0 
1.00078 0.00125719 0.0 
0.874562 -0.0945808 0.0 
1.00524 0.000726218 0.0 
1.00635 0.00132668 0.0 
0.774331 0.197507 0.0 
0.6824 0.189145 0.0 
0.938082 0.0510061 0.0 
0 0 0.0 
0.730355 -0.0166688 0.0 
1.00522 -0.000224174 0.0 
0.822025 0.0170699 0.0 
0.132845 -0.016008 0.0 
0.959135 -0.0453249 0.0 
0 0 0.0 
0.371398 -0.0172781 0.0 
0.117794 -0.00178342 0.0 
1.00547 0 0.0 
1.00393 -0.000246784 0.0 
0.89222 -0.0519089 0.0 
1.04701 0.208026 0.0 
1.00244 -0.00157491 0.0 
0.538831 0.0595106 0.0 
1.00478 -0.000233783 0.0 
0.020378 0.000281352 0.0 
1.0044 -0.000827225 0.0 
-1.10598e-123 1.43511e-124 0.0 
1.01283 -0.00020102 0.0 
1 0 0.0 
0.804103 0.0187132 0.0 
0.822117 0.167744 0.0 
0.502538 -0.0368375 0.0 
1.00806 -0.000561705 0.0 
0 0 0.0 
0.182434 -0.0235853 0.0 
0.0197963 -0.000255411 0.0 
0.132064 -0.00990266 0.0 
0.184378 0.00440061 0.0 
0.943118 -0.0160823 0.0 
0.266154 -0.0109615 0.0 
0.037099 -0.00396055 0.0 
1.00082 -0.00177832 0.0 
0.761653 0.104406 0.0 
0.0160456 0.00072459 0.0 
0 0 0.0 
1.03216 -0.0969931 0.0 
0.924734 0.316343 0.0 
0.720084 0.309255 0.0 
0 0 0.0 
1.00569 0 0.0 
1.0072 0.000134447 0.0 
0.99524 -0.00722561 0.0 
1.00944 -0.0001667 0.0 
0.857317 -0.0129152 0.0 
0.893598 0.00299697 0.0 
1.00618 5.3687e-05 0.0 
0.872136 -4.41007e-05 0.0 
0 0 0.0 
0.0482658 -0.00492591 0.0 
0.999497 -5.91867e-05 0.0 
0.0127404 -0.00091889 0.0 
1.00561 -0.00132 0.0 
0 0 0.0 
0 0 0.0 
0.94819 0.0166355 0.0 
0.0247066 0.000369649 0.0 
0.347506 0.0151083 0.0 
0.72543 0.0673445 0.0 
0.397298 0.00422193 0.0 
0.891246 0.00945639 0.0 
0.859625 -0.137474 0.0 
0.0801532 0.00283512 0.0 
0.858546 0.00181229 0.0 
0.695699 -0.0128328 0.0 
0.980767 -0.0677059 0.0 
0 0 0.0 
0.874238 -0.124912 0.0 
1.02734 -0.100823 0.0 
0.912731 0.323983 0.0 
0 0 0.0 
0.7503 0.107095 0.0 
1.00575 -0.00116219 0.0 
0.751141 0.13126 0.0 
0.686282 0.104789 0.0 
0.43065 0.132932 0.0 
0.743936 0.0768537 0.0 
0.346068 0.012664 0.0 
3.91666e-06 2.08714e-07 0.0 
0.299408 0.0273349 0.0 
0.315364 0.0121061 0.0 
1.00622 0.00011899 0.0 
1.00608 -9.27999e-05 0.0 
0.298857 0.0140819 0.0 
0 0 0.0 
1.00541 0.000527535 0.0 
7.30706e-297 -7.35323e-298 0.0 
0.283643 0.00822887 0.0 
1.00059 0.000419408 0.0 
1.00717 0.000201465 0.0 
0.992876 0.0591047 0.0 
1.00537 -0.000298815 0.0 
1.00666 0.00134516 0.0 
0.381684 0.0176103 0.0 
0.999206 -0.0272794 0.0 
1.01286 -0.00553072 0.0 
1.00624 -0.000263176 0.0 
1.00749 -0.00119256 0.0 
0.00984709 0.000719089 0.0 
1.00615 -0.00017378 0.0 
1.00783 0.000122282 0.0 
1.00678 -0.000308314 0.0 
0.823074 -0.0625014 0.0 
0.253307 -0.175496 0.0 
0.637375 0.00938158 0.0 
1.00366 -0.000103551 0.0 
0.412465 -0.0165606 0.0 
0.396092 -0.0358482 0.0 
0 0 0.0 
0 0 0.0 
1.0036 0 0.0 
0.000774692 4.32842e-05 0.0 
1.00582 0 0.0 
0.528949 0.307647 0.0 
1.0059 -0.00228391 0.0 
0 0 0.0 
0.577879 0.0713035 0.0 
0.00409419 -0.00055711 0.0 
9.70744e-289 4.68272e-290 0.0 
1.00688 0.000535583 0.0 
0.503575 0.0140143 0.0 
1.008 -0.000951408 0.0 
1.0105 0.000707106 0.0 
1.00615 -2.44607e-06 0.0 
0.925731 0.00234025 0.0 
1.02653 0.012002 0.0 
-6.73888e-211 -2.8707e-212 0.0 
1.00535 -0.000135046 0.0 
1.08818 0.0641866 0.0 
0.604826 0.0330413 0.0 
0.967289 -0.188884 0.0 
0.997003 -0.000513402 0.0 
1.00485 -0.000112423 0.0 
1.00042 0 0.0 
0.943869 0.00478292 0.0 
1.0211 0.0974119 0.0 
0.978514 -0.0918375 0.0 
0.0602339 -0.0120665 0.0 
1.00796 0.000576559 0.0 
1.07264 0.0737424 0.0 
0 0 0.0 
1.00687 0.000483308 0.0 
1.00641 -0.000695334 0.0 
0.78207 -0.0537274 0.0 
0.00563355 0.00034215 0.0 
1.00129 0.00540605 0.0 
0.421406 0.00284481 0.0 
0.644267 -0.0270881 0.0 
0.881828 0.242569 0.0 
1.00609 0.00238158 0.0 
1.00596 0.000415032 0.0 
1.00581 -3.97124e-05 0.0 
1.00865 0.000876419 0.0 
0.980909 0.00546486 0.0 
0.962031 0.273983 0.0 
0.886534 0.0120102 0.0 
1.00166 0.000229135 0.0 
0.999999 0.000126571 0.0 
1.00833 0.000242801 0.0 
1.00937 -0.00218238 0.0 
1.00752 0.000564449 0.0 
0.950046 -0.25907 0.0 
1.00651 0.00014005 0.0 
0.0344308 -0.00330413 0.0 
1.00348 -0.0128586 0.0 
1.02416 -0.00701051 0.0 
0.212624 -0.0219656 0.0 
-8.56812e-250 3.88406e-251 0.0 
0.586297 -0.0574429 0.0 
1.00719 0.000195561 0.0 
1.00384 -0.000259507 0.0 
1.00475 0.000814684 0.0 
0.930493 -0.339088 0.0 
0.0320634 -0.00232712 0.0 
0.337031 0.00482065 0.0 
0.082251 0.00235131 0.0 
0 0 0.0 
8.72432e-06 1.62937e-09 0.0 
0.895662 -0.385311 0.0 
1.00768 -0.00374117 0.0 
0.0143413 0.000968462 0.0 
1.00913 -0.00329064 0.0 
1.0072 0.000172638 0.0 
1.00221 0.000779491 0.0 
2.51719e-05 -1.92423e-06 0.0 
-7.62414e-45 -6.20905e-46 0.0 
0.530697 0.0130463 0.0 
0.709608 -0.0057868 0.0 
1.00643 -0.000435728 0.0 
1.00006 -0.000445072 0.0 
1.00884 0.000444254 0.0 
0.987456 0.00109635 0.0 
1.00877 -0.00147105 0.0 
0.0885986 0.00147042 0.0 
1.00586 -7.55299e-05 0.0 
0.543734 0.0100594 0.0 
0.950281 0.026812 0.0 
1.04136 0.00266687 0.0 
0.129829 -0.0172902 0.0 
0 0 0.0 
0.407748 0.0267076 0.0 
0.951376 0.0614447 0.0 
0.754663 0.0115868 0.0 
1.00564 0.000362903 0.0 
0.969304 -0.0814676 0.0 
1.0647 0.0552072 0.0 
1.00092 0.0626511 0.0 
0.990274 0.000759365 0.0 
0.262987 0.187624 0.0 
0 0 0.0 
0.00680661 -0.00129292 0.0 
1.00699 0.000361348 0.0 
0.0840983 0.0207641 0.0 
1.00718 0.000184785 0.0 
0.887037 -0.218415 0.0 
0.999969 -4.00497e-05 0.0 
1.00533 0 0.0 
1.08765 0.0540436 0.0 
0.0890516 0.00173443 0.0 
0.950036 0.0281604 0.0 
1.03391 0.233049 0.0 
0.816702 0.211886 0.0 
0.765575 -0.0284246 0.0 
0.459067 0.00181839 0.0 
1.00465 -0.000121042 0.0 
0.00771969 0.000578384 0.0 
1.00566 0.000164386 0.0 
1.00003 0.000335095 0.0 
0.977565 0.0158363 0.0 
0.999989 0.000294156 0.0 
0 0 0.0 
1.01334 0.0036395 0.0 
0.804569 0.205437 0.0 
0.787143 0.217381 0.0 
0.0576414 -0.0181873 0.0 
1.00611 -0.000574591 0.0 
0.815204 -0.0265418 0.0 
1.01318 -0.000237799 0.0 
0.675134 -0.0143306 0.0 
1.00475 -0.000255637 0.0 
1.00633 -0.000634433 0.0 
1.01031 -0.00190276 0.0 
1.00273 0 0.0 
1.00997 0.0239328 0.0 
0 0 0.0 
0.30542 0.0276428 0.0 
0.998496 -0.00208987 0.0 
0.147186 -0.0236727 0.0 
-9.03077e-210 5.95322e-211 0.0 
1.00578 0 0.0 
1.00661 0.00020042 0.0 
1.00239 0.00250814 0.0 
1.00564 -7.46292e-05 0.0 
0.941058 0.000782611 0.0 
1.00819 0.000668131 0.0 
1.0072 -0.00138613 0.0 
1.01032 -0.104778 0.0 
1.00711 -0.000122575 0.0 
1.00012 0.000785814 0.0 
1.00013 -0.000182048 0.0 
0.300396 0.126284 0.0 
0.0958928 0.0210356 0.0 
1.00598 -0.000140549 0.0 
1.02112 -0.245421 0.0 
1.00592 -0.00025837 0.0 
1.00595 0.000612908 0.0 
0.999977 6.4503e-06 0.0 
1.00555 -0.000251728 0.0 
1.00401 -0.000231888 0.0 
0 0 0.0 
1.00583 0.000203996 0.0 
0.0487216 0.0168694 0.0 
0.21628 0.0676398 0.0 
1.07987 -0.0940658 0.0 
0.251408 -0.0480084 0.0 
0.169457 -0.0201233 0.0 
0.74724 -0.0128629 0.0 
0.833768 0.117402 0.0 
0.420489 -0.00711718 0.0 
1.00531 -0.00109859 0.0 
1.00493 0 0.0 
0 0 0.0 
1.00615 -0.000408314 0.0 
1.0065 0.00044719 0.0 
0.999698 0.00505333 0.0 
0.944499 0.0009923 0.0 
0 0 0.0 
0.878163 -0.36756 0.0 
1.00684 0.00022344 0.0 
0.942865 0.267661 0.0 
0 0 0.0 
0.898781 -0.208372 0.0 
0.00184912 -0.000391623 0.0 
0.927458 0.0290977 0.0 
0 0 0.0 
0.976419 0.00103562 0.0 
1.00034 -0.000232565 0.0 
1.48351e-07 4.86973e-10 0.0 
0.452811 -0.307311 0.0 
0.994712 -0.302466 0.0 
0.258715 -0.0279828 0.0 
1 0.000129187 0.0 
0.999119 0.000422392 0.0 
0.993729 -0.00390241 0.0 
0.300825 0.00831287 0.0 
0 0 0.0 
0 0 0.0 
0.984988 0.0445239 0.0 
1.03025 0.0128676 0.0 
0.312523 -0.00269134 0.0 
0.979098 -0.0463969 0.0 
1.00652 -0.280662 0.0 
1.0047 -0.000254584 0.0 
1.00549 0 0.0 
1.00575 0.00141374 0.0 
1.00722 -0.00104025 0.0 
0.0132999 -0.000519708 0.0 
0.00616526 -0.00109032 0.0 
0.820115 -0.0214131 0.0 
0.804912 -0.413621 0.0 
1.00013 -0.000259457 0.0 
0.892251 -0.319069 0.0 
1.00275 0.00234081 0.0 
0 0 0.0 
0.312373 -0.112608 0.0 
1.0071 0.00042395 0.0 
0.821712 -0.0217042 0.0 
0.996493 -0.00110337 0.0 
0.0105571 0.000823896 0.0 
1.00582 -0.000195146 0.0 
0 0 0.0 
1.00648 -0.00113166 0.0 
0 0 0.0 
0.844805 -0.0236271 0.0 
0.884637 0.0251239 0.0 
1.0045 -5.11987e-05 0.0 
1.00004 -0.000234985 0.0 
1.03628 -0.253214 0.0 
1.00595 -0.00055304 0.0 
1.00806 -0.00181799 0.0 
1.01774 0.0169641 0.0 
0.184106 -0.0202301 0.0 
1.00633 0.0163161 0.0 
1.02186 0.217695 0.0 
0.0201341 0.000594341 0.0 
-4.38555e-170 -9.68571e-171 0.0 
1.00486 -0.000427339 0.0 
1.00608 -0.00100386 0.0 
0.738998 -0.0364852 0.0 
0.00748048 0.000715433 0.0 
1.02897 -0.0558271 0.0 
1.07091 0.153668 0.0 
1.00677 0.000259303 0.0 
2.40218e-05 -4.54183e-06 0.0 
0.348029 -0.00496218 0.0 
0.493328 -0.0224236 0.0 
0.499772 -0.352533 0.0 
0 0 0.0 
0.975634 -0.00130391 0.0 
0 0 0.0 
1.0065 -0.000104687 0.0 
1.00565 -0.000947968 0.0 
0.162215 0.00412709 0.0 
0.0467985 0.00192707 0.0 
0.961756 -0.0447172 0.0 
1.00993 -0.00182158 0.0 
0.935459 -0.00379162 0.0 
1.00104 -0.00133112 0.0 
0 0 0.0 
1.00079 0 0.0 
0.0483165 -0.00213356 0.0 
0.784026 0.342782 0.0 
0.00315603 -0.000588967 0.0 
0.713379 0.0218033 0.0 
1.00599 -0.000621864 0.0 
0.0194642 -0.00030873 0.0 
0.0558099 0.00319264 0.0 
1.00619 -0.000634563 0.0 
1.00626 0.000173972 0.0 
1.00463 0.203384 0.0 
0.175653 -0.0248293 0.0 
0.559717 0.113289 0.0 
0.0212683 8.49715e-05 0.0 
0.265838 -0.0297464 0.0 
1.00732 -0.0015991 0.0 
0.228898 0.0229058 0.0 
0 0 0.0 
0.993951 0.00257604 0.0 
0.0372023 -0.00628163 0.0 
1.00816 0.00483144 0.0 
1.00508 -0.000160586 0.0 
0.999992 2.86214e-05 0.0 
1.00445 -0.000241249 0.0 
1.00447 -0.00550079 0.0 
1.00605 -3.02732e-05 0.0 
1.00664 -0.000673671 0.0 
0.026463 0.00236384 0.0 
1.00475 0 0.0 
0.996023 0.0233343 0.0 
0 0 0.0 
0.706603 -0.0460251 0.0 
0.190475 0.0129911 0.0 
0.0109976 -0.00158342 0.0 
0.00272189 -0.000156459 0.0 
0.950617 0.0324416 0.0 
0.944752 -0.0335585 0.0 
0.137201 0.0380054 0.0 
1.00613 9.24838e-05 0.0 
1.00001 -0.000169892 0.0 
0.406031 -0.0978409 0.0 
1.00743 0.000327468 0.0 
1.00668 -0.000538058 0.0 
1.00598 0 0.0 
1.00726 -0.000413535 0.0 
1.00529 0.000589988 0.0 
1.01108 -0.00393525 0.0 
1.01515 0.0208087 0.0 
1.0068 0.000297584 0.0 
0.0191417 -0.00230991 0.0 
1.00057 0.00144289 0.0 
1.00501 0.00020892 0.0 
1.03057 -0.0259918 0.0 
1.12253 0.0813685 0.0 
0.997594 0.00165506 0.0 
0.406852 0.00594886 0.0 
0.181829 0.0616907 0.0 
-2.10981e-102 -4.81457e-103 0.0 
-7.9062e-66 2.42902e-66 0.0 
1.02865 0.0204746 0.0 
-3.55981e-249 2.47798e-250 0.0 
1.00695 -0.000790368 0.0 
0.999796 -0.000813739 0.0 
7.39573e-07 3.52007e-08 0.0 
0.315677 0.044964 0.0 
1.00661 -0.00132829 0.0 
0.0121782 -0.00206222 0.0 
1.00595 -5.46782e-05 0.0 
0.0137352 0.00104811 0.0 
0.897621 0.137586 0.0 
1.00594 -2.31325e-05 0.0 
0.0767893 -0.00436867 0.0 
1.00455 -0.000183589 0.0 
0.107978 -0.0152687 0.0 
1 0 0.0 
0.962324 -0.0565928 0.0 
1.00706 0.000160884 0.0 
1.00761 0.000119143 0.0 
0.0233079 -0.00241304 0.0 
1.00601 -6.63778e-05 0.0 
1.00432 -0.000232301 0.0 
1.00446 -0.00133269 0.0 
0.0485167 0.0079189 0.0 
0.174595 0.0539031 0.0 
0.0645059 -0.00212525 0.0 
1.00701 0.000287884 0.0 
1.0059 4.02833e-05 0.0 
1.00622 -0.000370762 0.0 
1.00372 -0.000562913 0.0 
0.802713 0.319071 0.0 
1.0063 0.000208018 0.0 
0.283879 -0.0409161 0.0 
0.0190544 -0.00251388 0.0 
0.99988 0.0009757 0.0 
0.707556 -0.00862949 0.0 
0.912162 -0.00375834 0.0 
0.705668 0.0132679 0.0 
0.0064207 -0.00128595 0.0 
0.90232 -0.00389452 0.0 
1.00593 0.00105132 0.0 
0.0314714 0.00113431 0.0 
1.00563 4.8909e-05 0.0 
0.692084 0.000978776 0.0 
0.0317144 -0.00325578 0.0 
1 0.000232044 0.0 
-2.56573e-166 -1.96014e-167 0.0 
0.96355 -0.283045 0.0 
1.00049 0 0.0 
0.337957 0.0546795 0.0 
1.00577 -0.000377811 0.0 
0.0858875 0.00228535 0.0 
0.15943 -0.00334734 0.0 
0.924664 -0.305869 0.0 
0.997326 -0.000786084 0.0 
0.999356 0.000716528 0.0 
1.00663 0.000650639 0.0 
0 0 0.0 
1.00002 -0.000184131 0.0 
0.260734 0.0229 0.0 
0.501532 -0.0127891 0.0 
1.00727 0.000341215 0.0 
0.812633 0.0141045 0.0 
1.0052 0.00145593 0.0 
1.00404 -0.000324588 0.0 
1.00814 0.00202633 0.0 
1.00024 0.000356782 0.0 
1.00546 -0.000726861 0.0 
0.0102582 0.000101816 0.0 
1.0052 -0.000161365 0.0 
1.01016 0.00420851 0.0 
1.01809 0.00948618 0.0 
1.00104 0.00239196 0.0 
1.00637 -0.000636606 0.0 
0.635706 0.0145126 0.0 
1.00602 -0.00106014 0.0 
0.704891 0.0906105 0.0 
0.879525 0.0100358 0.0 
1.00134 0.00279189 0.0 
0.999937 -0.00133901 0.0 
0.600134 0.0141869 0.0 
0.993348 0.00169596 0.0 
1.00773 -0.00126284 0.0 
0.0346067 -0.00118129 0.0 
1.00643 0.000145406 0.0 
1.00888 0.0018959 0.0 
1.00003 0.000300572 0.0 
1.00837 0.00127021 0.0 
1.00691 0.00029209 0.0 
1.00703 -0.000695485 0.0 
1.00628 -0.000335571 0.0 
0.983625 0.139355 0.0 
1.00809 -0.00712412 0.0 
1.00541 -0.000172452 0.0 
1.0057 -0.000267845 0.0 
0.722916 -0.0308361 0.0 
0.999997 -0.00043993 0.0 
0.390422 0.138556 0.0 
0.00337345 -0.000724651 0.0 
0.384106 -0.0108342 0.0 
1.00648 -0.00068061 0.0 
0.790593 0.00183793 0.0 
0 0 0.0 
1.00531 -0.000410394 0.0 
1.00406 -0.000174315 0.0 
0.00946405 -0.0012283 0.0 
0 0 0.0 
1.00628 -0.000619799 0.0 
1.00693 6.70743e-05 0.0 
0.514266 0.264079 0.0 
0.331905 -0.00587349 0.0 
1.00567 8.8928e-05 0.0 
1.12519 0.0826571 0.0 
0.00036975 2.8991e-05 0.0 
1.0089 0.000523609 0.0 
0.203582 0.0173656 0.0 
1.03998 -0.0026033 0.0 
0.0290811 -0.000249703 0.0 
0.886652 -0.0210552 0.0 
1.00395 0.000252797 0.0 
1.00845 -0.00214797 0.0 
1.00577 4.79585e-05 0.0 
0.620691 0.0268904 0.0 
0.440841 -0.0161872 0.0 
0.560896 -0.0356926 0.0 
1.0057 -0.00072922 0.0 
1.01317 0.0263994 0.0 
0.868681 -0.016388 0.0 
0.862192 0.0304727 0.0 
1.0071 0.000218302 0.0 
1.00411 -0.000249189 0.0 
0.0306339 -0.0168033 0.0 
1.00725 0.000115889 0.0 
1.00657 -0.000228531 0.0 
0.335719 0.0203406 0.0 
0.0456127 -0.000184161 0.0 
0.00618779 0.000438846 0.0 
0.0137185 -0.00232126 0.0 
0.0152313 -6.27357e-05 0.0 
1.0074 0.000243056 0.0 
1.00561 -0.0449477 0.0 
1.00708 8.80467e-05 0.0 
0.0607333 -0.0132005 0.0 
1.0015 0.00123504 0.0 
1.00505 -0.00248896 0.0 
1.00435 0.00131705 0.0 
0.998892 0.00447541 0.0 
1.00582 0.000846775 0.0 
0.0359808 0.00363364 0.0 
1.00174 -0.000506495 0.0 
1.00594 -3.31832e-05 0.0 
-1.80632e-42 -9.86398e-44 0.0 
0.0284276 0.000774231 0.0 
1.00599 -5.53664e-05 0.0 
1.00469 -0.00284599 0.0 
0.997976 -0.00225046 0.0 
1.03848 0.0239032 0.0 
1.00481 -0.00102321 0.0 
2.19259e-05 1.67725e-06 0.0 
0.970945 -0.0376531 0.0 
0.0706598 0.00992214 0.0 
0.143171 -0.231031 0.0 
1.01956 -0.0938178 0.0 
0.0362759 -0.00719326 0.0 
0.453488 0.207069 0.0 
1.00429 -0.00291907 0.0 
1 -0.000954106 0.0 
1.0053 -0.000435613 0.0 
0.834731 0.291746 0.0 
1.00704 0.00045348 0.0 
0.912907 -0.0161585 0.0 
0.917394 0.00196509 0.0 
1.00616 -0.000626378 0.0 
0.955402 0.0281621 0.0 
1.00058 -0.000419455 0.0 
1.0074 -0.000734806 0.0 
1.00623 0.0011178 0.0 
1.0066 -0.000146492 0.0 
1.00645 -0.000614591 0.0 
0 0 0.0 
1.0059 8.84582e-05 0.0 
0.997472 0.0123358 0.0 
0.88621 0.0155039 0.0 
0.00389761 -0.000690726 0.0 
1.00461 0.00654029 0.0 
0.607914 0.0304228 0.0 
1.00001 -0.000260814 0.0 
1.00007 -0.000219946 0.0 
0.86137 0.0313387 0.0 
0.272975 0.00517755 0.0 
1.00753 0.000273955 0.0 
1.00876 0.000182698 0.0 
0.395633 -0.00960444 0.0 
1.05992 0.0947427 0.0 
1.00004 0.00018673 0.0 
0 0 0.0 
1.97594e-06 7.36771e-08 0.0 
1.0071 0.00017331 0.0 
0.40195 0.00501536 0.0 
1.00454 -0.00053829 0.0 
0.431355 0.00788244 0.0 
0 0 0.0 
1.00001 7.20847e-05 0.0 
1.00695 -0.000658448 0.0 
0.403003 0.031501 0.0 
1.00569 -0.000717691 0.0 
1.00594 -0.00011028 0.0 
1.00516 -0.00112297 0.0 
1.00534 -0.000589848 0.0 
0.181584 0.000376577 0.0 
0.904524 -0.0944939 0.0 
0 0 0.0 
1.00562 0.000746449 0.0 
1.00548 -0.000588425 0.0 
0.388555 0.0054635 0.0 
1.00493 -0.000123966 0.0 
1.00502 -0.000740145 0.0 
1.00677 0.000921646 0.0 
0.572155 0.00176448 0.0 
1.00463 -0.000463868 0.0 
0.598966 -0.000360448 0.0 
0.893198 0.0140356 0.0 
0.875683 0.163767 0.0 
1.00008 -0.000693336 0.0 
0.301895 0.0660642 0.0 
1.00484 -0.00016443 0.0 
0.927435 -0.164276 0.0 
1.00128 -0.00669848 0.0 
0.44753 -0.0175837 0.0 
0.911006 -0.0563514 0.0 
0.0312632 -0.0163336 0.0 
1.00763 -0.00194244 0.0 
0.417305 0.0019815 0.0 
1.75996e-07 1.59419e-08 0.0 
1.00263 0.151192 0.0 
0.43365 -0.000990747 0.0 
1.00798 -0.000143081 0.0 
0.999855 0.000379219 0.0 
0.99436 -0.00130842 0.0 
1.00604 -0.000304248 0.0 
1.00915 0.000555522 0.0 
1.00414 -0.00253226 0.0 
0.999396 0.00086938 0.0 
1.00084 0.0168618 0.0 
1.00459 -0.00100094 0.0 
0.999846 0.00317471 0.0 
1.00472 -0.000680929 0.0 
1.00675 -0.000641829 0.0 
1.00593 0.000358493 0.0 
1.01054 -0.000480353 0.0 
1.00528 0.000295449 0.0 
0.333741 -0.00158925 0.0 
0.353803 -0.00176732 0.0 
1.00602 0.000104112 0.0 
1.00744 0.0013394 0.0 
1.0069 -1.53452e-05 0.0 
0.78804 0.141144 0.0 
0.970257 -0.0668374 0.0 
1.00592 -0.000646727 0.0 
1.00636 7.88604e-05 0.0 
0.470986 -0.0225172 0.0 
1.0073 8.11128e-05 0.0 
0.444031 0.174232 0.0 
0.346462 0.000998114 0.0 
1.00607 0.000228933 0.0 
1.00562 -0.000189016 0.0 
0.793973 -0.00123881 0.0 
0.999832 -0.000287023 0.0 
0.997669 0.00434547 0.0 
1.00833 0.000568346 0.0 
1.00001 -0.00013374 0.0 
1.00132 0.000847575 0.0 
1.0064 -9.03766e-05 0.0 
1.00774 -0.000917217 0.0 
0.566295 -0.0174114 0.0 
1.00322 0.00220867 0.0 
0.94863 -0.0516472 0.0 
1.0063 0.000263142 0.0 
0.00773914 0.00049181 0.0 
0.835463 -0.0515124 0.0 
1 -0.000255229 0.0 
0.322878 -0.234614 0.0 
0.389866 0.0863304 0.0 
1.06254 -0.0525788 0.0 
0.69808 0.00429749 0.0 
1.00236 0.00978636 0.0 
0.141445 0.0277591 0.0 
1.00759 0.000220944 0.0 
1.00732 -0.00186134 0.0 
0.951862 0.0225869 0.0 
1.007 -0.000318763 0.0 
0.823458 0.00501207 0.0 
0 0 0.0 
0.0464772 0.00208301 0.0 
1.00495 -0.00135498 0.0 
0.235967 0.00418304 0.0 
0.856805 0.0596641 0.0 
0.482749 0.0678245 0.0 
0.0209617 0.000856943 0.0 
0.518738 -0.0464323 0.0 
0.885329 -0.055026 0.0 
0.0151713 -0.0280649 0.0 
1.00578 0.000156227 0.0 
1.00679 -0.000837493 0.0 
1.00661 -0.000768133 0.0 
0.0652823 -0.00033654 0.0 
1.00483 -0.00154251 0.0 
0.914697 -0.373155 0.0 
1.00355 0.000853481 0.0 
1.00587 -0.000975922 0.0 
0 0 0.0 
1.11692 0.0424214 0.0 
0.0451416 -0.00485122 0.0 
1.00672 0.000957338 0.0 
0.0156594 0.00100196 0.0 
0.12765 -0.0171962 0.0 
0.976165 -0.0341938 0.0 
0.9935 -0.00221871 0.0 
1.00481 -0.000195772 0.0 
0.999761 0.00185099 0.0 
0.948235 0.0207648 0.0 
1.00544 4.61805e-05 0.0 
0.010325 -0.000519756 0.0 
1.00558 0 0.0 
0.883659 -0.0205606 0.0 
1.00001 0.000102284 0.0 
0.0809251 0.0549678 0.0 
1.00606 0.000907716 0.0 
2.55656e-20 3.30945e-20 0.0 
0.537743 0.0910625 0.0 
1.0058 0.000790604 0.0 
1.0067 0.000311607 0.0 
0.0595581 0.0116938 0.0 
1.00909 0.00380082 0.0 
0.999515 -0.000855159 0.0 
1.00682 -0.000803179 0.0 
0.0298713 -0.00123095 0.0 
1.00681 -1.58744e-07 0.0 
1.0078 -0.000335592 0.0 
1.00628 0.000871901 0.0 
1.01137 -0.0134207 0.0 
1.00604 -1.18017e-05 0.0 
0.984041 -0.124126 0.0 
0.999921 -0.000228909 0.0 
1.00333 0 0.0 
1.00606 8.40007e-05 0.0 
0.914622 0.0302577 0.0 
0.0259226 0.00127536 0.0 
0.656547 0.011042 0.0 
0.612271 -0.431397 0.0 
1.00603 -0.000398297 0.0 
1.00782 -0.00512661 0.0 
0.690898 -0.0143741 0.0 
1.00124 -0.00226616 0.0 
0.0206069 0.000690501 0.0 
0.0469591 -0.00802978 0.0 
1.01099 -0.0604391 0.0 
2.64798e-05 -3.01516e-06 0.0 
1.00714 -0.000506812 0.0 
1.00381 -0.00173747 0.0 
0.974215 -0.0229203 0.0 
1.00134 0.00149005 0.0 
1.00502 -0.000188618 0.0 
0.165731 0.00488112 0.0 
1.00083 0.000467839 0.0 
1.00097 -0.000853456 0.0 
1.00012 -0.000687452 0.0 
0.93984 -0.283586 0.0 
0.999478 0.000171306 0.0 
0.00987313 4.03916e-06 0.0 
0.15719 0.00865937 0.0 
1.00646 -0.000943152 0.0 
1.00464 -0.00348542 0.0 
1.00358 0.0044432 0.0 
0.999923 9.18774e-06 0.0 
0.0489617 0.0101288 0.0 
1.00029 0.000673346 0.0 
0.192261 0.0666183 0.0 
0.231393 -0.05065 0.0 
1.00984 -0.00359121 0.0 
1.00885 0.000178432 0.0 
1.11439 0.0899719 0.0 
0.831078 0.333676 0.0 
0.413551 -0.123322 0.0 
0.999966 0.00082889 0.0 