<VTKFile type="UnstructuredGrid" version="0.1" byte_order="LittleEndian">
  <UnstructuredGrid>
    <Piece NumberOfPoints="13487" NumberOfCells="26785">
      <Points>
        <DataArray type = "Float64" NumberOfComponents="3" format="ascii">
0 0 0.0 
14 0 0.0 
14 8 0.0 
0 8 0.0 
0.383893 2.91152 0.0 
4.51189 3.98643 0.0 
4.00988 3.97036 0.0 
4.88569 3.98105 0.0 
11.8702 0.212102 0.0 
8.48285 5.046 0.0 
10.151 2.94081 0.0 
4.07057 3.9639 0.0 
4.53824 7.43039 0.0 
5.25251 4.08103 0.0 
3.98741 4.04054 0.0 
3.98768 4.02653 0.0 
3.89131 6.82659 0.0 
4.28182 3.97946 0.0 
10.4452 3.51648 0.0 
4.29039 3.92587 0.0 
4.08412 4.04566 0.0 
4.47538 4.03375 0.0 
4.67405 4.10923 0.0 
4.1789 4.0308 0.0 
4.80484 4.03022 0.0 
4.61584 4.00791 0.0 
12.1265 0 0.0 
3.59683 3.72299 0.0 
3.1002 2.25282 0.0 
4.30241 3.97961 0.0 
4.04819 4.02822 0.0 
4.13489 4.05432 0.0 
2.61514 0.506135 0.0 
4.05101 4.00074 0.0 
5.25032 1.89548 0.0 
8.67201 2.39205 0.0 
3.10914 5.59567 0.0 
0 3.36284 0.0 
4.93697 3.93496 0.0 
3.90881 3.9602 0.0 
4.90839 4.00372 0.0 
10.1734 4.4195 0.0 
4.0273 4.01367 0.0 
4.00964 3.98933 0.0 
3.10369 4.62278 0.0 
4.62342 4.01415 0.0 
4.47958 4.018 0.0 
5.17517 4.1161 0.0 
14 4.58022 0.0 
4.01425 3.98947 0.0 
12.1569 4.13323 0.0 
4.12607 4.05951 0.0 
3.69303 4.54337 0.0 
4.2483 4.03635 0.0 
4.0955 3.94899 0.0 
4.03444 4.04627 0.0 
4.00163 4.02959 0.0 
4.02005 3.99731 0.0 
5.23503 8 0.0 
4.51017 3.99786 0.0 
4.98619 3.93198 0.0 
4.07177 4.09131 0.0 
5.35828 4.09214 0.0 
4.13651 4.04345 0.0 
3.31161 1.01031 0.0 
11.1865 7.25481 0.0 
4.1403 4.03691 0.0 
4.35473 4.03787 0.0 
3.04848 4.40628 0.0 
4.19008 4.04959 0.0 
4.11271 4.04576 0.0 
4.15825 4.03374 0.0 
4.04672 4.0202 0.0 
4.94501 3.90266 0.0 
13.1818 2.98063 0.0 
4.54772 3.97659 0.0 
3.96947 4.02134 0.0 
4.21303 3.97045 0.0 
5.28835 3.91341 0.0 
3.96297 3.96024 0.0 
4.09803 3.98339 0.0 
9.69483 7.24214 0.0 
4.47086 4.06162 0.0 
4.11692 3.94964 0.0 
4.51884 3.99789 0.0 
3.95785 3.95439 0.0 
4.09065 3.95069 0.0 
4.02972 4.04518 0.0 
11.4641 4.85408 0.0 
3.97141 4.03046 0.0 
3.84668 3.90466 0.0 
3.97561 4.03322 0.0 
3.97816 4.02179 0.0 
4.04633 4.03304 0.0 
3.96767 4.02507 0.0 
4.53971 3.97638 0.0 
4.53801 4.03291 0.0 
4.07454 3.94323 0.0 
4.54225 3.97864 0.0 
11.728 4.38835 0.0 
3.91383 4.06553 0.0 
4.54991 3.98013 0.0 
4.11785 4.02706 0.0 
4.73521 7.52615 0.0 
5.2927 4.05862 0.0 
4.52549 3.98021 0.0 
6.21311 5.48601 0.0 
4.39108 3.99536 0.0 
1.77675 6.77593 0.0 
13.4284 4.18392 0.0 
4.21339 4.02989 0.0 
5.97379 5.37058 0.0 
4.74535 3.98025 0.0 
4.62546 3.9826 0.0 
3.22019 3.32369 0.0 
4.02636 4.19193 0.0 
4.4535 4.01005 0.0 
13.5337 6.38239 0.0 
4.92704 4.10133 0.0 
6.37297 2.73989 0.0 
6.50541 6.65271 0.0 
4.0914 3.96216 0.0 
4.00773 4.00001 0.0 
5.20281 3.96498 0.0 
12.2741 7.78702 0.0 
4.51005 3.99832 0.0 
4.65935 4.04515 0.0 
8.91842 0.967714 0.0 
4.05312 3.99197 0.0 
13.7435 8 0.0 
13.2903 7.45798 0.0 
6.67367 0 0.0 
4.00932 4.01975 0.0 
6.82471 4.26136 0.0 
4.20354 4.03712 0.0 
13.1593 5.25113 0.0 
4.51291 3.99863 0.0 
1.48228 7.4999 0.0 
4.55263 4.00322 0.0 
12.9422 5.39237 0.0 
4.76297 3.98343 0.0 
13.1055 3.48759 0.0 
6.22735 7.50315 0.0 
1.33311 1.459 0.0 
4.41876 3.99518 0.0 
9.70352 1.23095 0.0 
6.98728 5.60342 0.0 
8.95603 7.57132 0.0 
4.22222 4.09636 0.0 
3.98122 4.01031 0.0 
3.8827 3.53338 0.0 
9.65423 4.26818 0.0 
4.00414 3.99309 0.0 
7.16027 0.691409 0.0 
4.84915 4.03246 0.0 
3.93018 4.29316 0.0 
4.08943 3.95494 0.0 
4.54778 4.01674 0.0 
3.94907 3.70014 0.0 
4.18074 4.21382 0.0 
7.6398 2.6807 0.0 
4.39155 4.71466 0.0 
1.1914 3.57636 0.0 
4.09428 3.96323 0.0 
4.16705 3.98699 0.0 
4.02257 4.01937 0.0 
4.18332 3.96996 0.0 
4.1436 4.04394 0.0 
1.21548 8 0.0 
4.73454 4.01964 0.0 
12.0372 1.49526 0.0 
4.84809 6.69312 0.0 
13.6945 7.80328 0.0 
3.88651 4.04955 0.0 
4.05399 4.05242 0.0 
5.11537 3.91723 0.0 
4.1509 3.98694 0.0 
9.95524 3.5984 0.0 
6.38052 3.13775 0.0 
5.9291 5.15993 0.0 
4.05815 3.98351 0.0 
4.0029 3.93744 0.0 
9.4176 1.73395 0.0 
2.37857 1.61641 0.0 
5.24537 4.1668 0.0 
5.16077 4.06746 0.0 
4.46368 4.04155 0.0 
10.0316 4.54461 0.0 
4.06062 3.97377 0.0 
8.35832 2.9685 0.0 
13.4699 7.45697 0.0 
4.52616 3.99763 0.0 
4.01229 3.97705 0.0 
4.1283 4.05439 0.0 
4.90953 3.97583 0.0 
4.03784 4.02637 0.0 
4.09808 4.03387 0.0 
6.95088 7.06331 0.0 
4.00577 3.97873 0.0 
6.85323 7.27439 0.0 
9.54961 6.99546 0.0 
0.739565 8 0.0 
7.62224 2.88267 0.0 
10.6153 7.62373 0.0 
4.30141 4.04146 0.0 
4.08297 4.00762 0.0 
4.44582 3.99152 0.0 
4.02321 3.97317 0.0 
4.80165 4.50897 0.0 
4.01079 3.9997 0.0 
5.8599 3.0813 0.0 
3.45029 4.08832 0.0 
8.21186 3.9854 0.0 
4.13625 3.98575 0.0 
4.00487 4.00528 0.0 
3.86564 4.1252 0.0 
4.6103 3.91602 0.0 
2.89316 5.49873 0.0 
4.96928 3.97464 0.0 
4.11575 4.03408 0.0 
4.30095 6.55577 0.0 
4.20274 4.07949 0.0 
4.4793 4.02135 0.0 
12.5015 1.14918 0.0 
4.09797 3.95385 0.0 
4.23052 4.09368 0.0 
4.20868 4.08388 0.0 
6.21683 4.34873 0.0 
4.52095 3.99918 0.0 
4.21025 4.03415 0.0 
4.03987 4.13888 0.0 
7.99609 6.1415 0.0 
4.35175 4.03659 0.0 
6.64238 0.26606 0.0 
3.98799 3.95955 0.0 
4.50844 4.41537 0.0 
8.82235 8 0.0 
4.23781 4.09881 0.0 
4.16892 4.04593 0.0 
4.69512 3.9114 0.0 
4.33916 4.03836 0.0 
4.06329 4.04721 0.0 
4.48916 4.01451 0.0 
4.18805 3.96826 0.0 
6.11958 4.72209 0.0 
11.0923 3.74039 0.0 
5.42789 4.66901 0.0 
0.417479 6.31883 0.0 
4.28781 3.99134 0.0 
5.99012 4.04484 0.0 
4.05641 4.03077 0.0 
4.54154 4.00483 0.0 
3.98977 4.04663 0.0 
3.99153 4.04254 0.0 
4.57553 4.01147 0.0 
4.06176 4.07945 0.0 
2.41657 7.83798 0.0 
5.0604 3.97687 0.0 
3.97296 4.00674 0.0 
11.3714 7.19716 0.0 
9.192 5.81999 0.0 
4.22311 3.98785 0.0 
3.53429 0 0.0 
4.67134 3.89044 0.0 
4.08953 4.02996 0.0 
4.14091 4.04918 0.0 
2.30378 3.03595 0.0 
4.38704 4.0795 0.0 
3.58142 4.19966 0.0 
7.40997 8 0.0 
0.348252 3.38742 0.0 
2.86414 6.59491 0.0 
4.88498 4.06106 0.0 
9.9204 3.84008 0.0 
4.40345 3.99446 0.0 
3.88393 4.01426 0.0 
14 5.55294 0.0 
6.78993 2.13526 0.0 
4.03796 3.98522 0.0 
0.846754 0.565038 0.0 
4.05827 4.04837 0.0 
4.55143 4.02795 0.0 
11.8107 0.651755 0.0 
4.02904 3.9664 0.0 
7.59973 7.22298 0.0 
12.6277 1.80732 0.0 
0.845864 1.62601 0.0 
5.85073 0.410811 0.0 
13.0902 7.46595 0.0 
4.33599 4.03724 0.0 
2.77497 7.51281 0.0 
9.89882 3.93498 0.0 
5.18268 3.9437 0.0 
4.08463 4.01547 0.0 
4.48116 4.01695 0.0 
4.51225 4.03393 0.0 
3.96066 4.00697 0.0 
4.20802 4.04697 0.0 
4.96395 4.01931 0.0 
13.1661 5.68046 0.0 
13.7895 0 0.0 
4.10795 4.02897 0.0 
4.5671 3.97265 0.0 
11.4357 2.10385 0.0 
4.34203 3.99383 0.0 
6.73412 3.55133 0.0 
4.00791 4.0033 0.0 
4.0088 3.9805 0.0 
9.75515 2.36072 0.0 
7.12026 6.70684 0.0 
3.97135 4.09964 0.0 
4.02947 3.97325 0.0 
4.54803 4.00405 0.0 
4.6454 3.91884 0.0 
4.01129 4.00596 0.0 
4.21367 3.97319 0.0 
4.54091 4.00704 0.0 
4.93652 4.08387 0.0 
7.34292 5.19319 0.0 
4.01755 3.97046 0.0 
4.52386 4.04096 0.0 
0.195775 6.68759 0.0 
10.5319 2.82151 0.0 
6.42419 4.18044 0.0 
3.77162 4.00816 0.0 
4.05373 4.0206 0.0 
4.0593 4.0207 0.0 
8.43409 3.16574 0.0 
9.65721 5.90637 0.0 
4.11868 3.97589 0.0 
4.15516 3.94365 0.0 
4.01695 3.96353 0.0 
4.01845 4.01173 0.0 
8.32777 8 0.0 
4.02586 3.98561 0.0 
3.99816 4.00816 0.0 
11.7852 3.46807 0.0 
4.51883 4.01095 0.0 
5.06461 4.08435 0.0 
4.00437 3.9841 0.0 
9.90278 1.9712 0.0 
4.0134 3.97877 0.0 
3.03193 6.72582 0.0 
4.5555 3.99978 0.0 
4.01079 3.9893 0.0 
14 3.84943 0.0 
4.36156 4.08272 0.0 
2.48952 3.59766 0.0 
11.2705 7.61787 0.0 
0.898692 6.20579 0.0 
4.20001 4.03326 0.0 
0.262648 3.59523 0.0 
4.21639 4.03358 0.0 
3.92685 3.99783 0.0 
3.89766 4.03669 0.0 
11.5792 7.84461 0.0 
0.551344 1.2516 0.0 
4.02575 3.96118 0.0 
3.84378 4.30645 0.0 
6.49849 5.21743 0.0 
11.4878 0.917753 0.0 
7.46235 3.44631 0.0 
4.28788 4.04173 0.0 
4.09178 4.02837 0.0 
4.00353 3.9915 0.0 
11.22 2.61803 0.0 
11.8351 6.74811 0.0 
7.56457 6.83703 0.0 
4.1127 3.96242 0.0 
4.11092 4.04153 0.0 
4.15116 3.93854 0.0 
4.13176 4.07898 0.0 
10.2186 2.28825 0.0 
12.5003 4.90808 0.0 
4.85957 4.01386 0.0 
4.16901 4.78931 0.0 
4.00279 3.99128 0.0 
4.05385 4.00986 0.0 
2.66772 5.1655 0.0 
8.94235 3.15878 0.0 
6.32476 7.00417 0.0 
12.5996 5.63737 0.0 
4.64409 4.00438 0.0 
4.67244 5.32743 0.0 
7.19396 5.74117 0.0 
4.04604 4.02963 0.0 
8.6802 3.80876 0.0 
4.05663 4.08828 0.0 
4.54396 3.89411 0.0 
0.139724 5.28321 0.0 
4.49757 4.01476 0.0 
3.99586 4.00736 0.0 
4.47563 4.01726 0.0 
3.96806 4.01296 0.0 
11.0968 5.75296 0.0 
4.55406 3.99831 0.0 
4.12609 4.06211 0.0 
0.861823 0.804062 0.0 
4.53312 4.00677 0.0 
1.47689 3.96699 0.0 
4.5467 4.03146 0.0 
4.02687 4.06319 0.0 
4.51206 4.01079 0.0 
4.53595 4.04072 0.0 
7.20657 5.05296 0.0 
4.01037 4.03325 0.0 
4.10972 3.93391 0.0 
13.167 3.69177 0.0 
4.53295 4.01509 0.0 
0.332338 5.15195 0.0 
5.30644 0.173765 0.0 
0.198711 3.79297 0.0 
4.72583 0.194576 0.0 
3.90471 2.31823 0.0 
4.01816 4.01732 0.0 
4.44219 3.99697 0.0 
4.04705 4.09644 0.0 
4.27227 4.04153 0.0 
4.47293 4.03853 0.0 
4.73668 3.89169 0.0 
4.04877 3.98924 0.0 
3.96886 4.00175 0.0 
4.64006 3.99672 0.0 
3.85377 3.84164 0.0 
4.61917 3.98897 0.0 
5.35654 3.74719 0.0 
4.82507 4.1106 0.0 
4.10171 3.98704 0.0 
4.27412 4.0429 0.0 
0.347962 1.57688 0.0 
4.55691 3.99871 0.0 
13.6016 4.5256 0.0 
7.00233 6.47926 0.0 
7.78364 0 0.0 
6.32437 6.34013 0.0 
9.40278 3.77708 0.0 
5.62592 4.80931 0.0 
4.7383 3.87602 0.0 
4.76354 3.99674 0.0 
7.66491 7.40727 0.0 
1.64832 6.43608 0.0 
13.7604 0.5867 0.0 
4.26616 4.04412 0.0 
4.85208 4.04382 0.0 
5.04979 5.17236 0.0 
4.25841 3.96952 0.0 
4.03014 4.02376 0.0 
13.8474 2.94992 0.0 
10.2682 5.93402 0.0 
2.38712 1.20485 0.0 
4.20831 4.10661 0.0 
10.7281 8 0.0 
4.29463 4.04049 0.0 
1.67428 8 0.0 
4.47418 3.99665 0.0 
10.9441 5.59853 0.0 
4.1214 4.03972 0.0 
7.05343 0.323278 0.0 
10.2024 1.42429 0.0 
12.3042 5.26101 0.0 
7.14156 0.150746 0.0 
7.95608 7.77452 0.0 
4.24795 3.92322 0.0 
8.57985 3.52189 0.0 
4.00045 4.00043 0.0 
10.6647 4.552 0.0 
8.64936 2.61471 0.0 
9.46048 3.26649 0.0 
4.07396 4.02843 0.0 
7.18228 0.487344 0.0 
7.36099 6.27735 0.0 
4.47017 0.936125 0.0 
5.74105 5.24442 0.0 
13.2238 4.45545 0.0 
[...]
<PointData>
  <DataArray type = "Float64" Name="Vitesse" NumberOfComponents="3" format="ascii">
1 0 0.0 
1.00453 0 0.0 
1.00293 0 0.0 
1 0 0.0 
0.999969 -0.000137081 0.0 
0.186073 0.00482631 0.0 
0.963756 -0.325255 0.0 
0.460001 0.0137016 0.0 
1.00533 6.9382e-05 0.0 
1.00704 -0.0011655 0.0 
1.00707 0.000462688 0.0 
0.874729 -0.0944546 0.0 
1.00524 0.000725797 0.0 
0.808581 -0.0157704 0.0 
0.774316 0.197497 0.0 
0.682384 0.189127 0.0 
1.0047 0.00212856 0.0 
0.218308 0.00598547 0.0 
1.00809 0.000578863 0.0 
0.994599 -0.016411 0.0 
0.559676 0.113266 0.0 
0.13279 -0.0159393 0.0 
0.959192 -0.0453263 0.0 
0 0 0.0 
0.371354 -0.0172673 0.0 
0.117776 -0.00178266 0.0 
1.00522 0 0.0 
0.98186 -0.0147945 0.0 
1.00125 -0.00404959 0.0 
0.221411 0.00592041 0.0 
0.0684503 0.0207264 0.0 
0.538843 0.0595057 0.0 
1.00144 -0.000612346 0.0 
0 0 0.0 
1.00693 -0.00167531 0.0 
1.00693 0.000196687 0.0 
1.00228 0.00587386 0.0 
1 0 0.0 
0.804043 0.0187001 0.0 
0.892227 -0.0519019 0.0 
0.379229 0.0010906 0.0 
1.00814 -0.000756491 0.0 
0 0 0.0 
0.360726 -0.14949 0.0 
0.996202 0.00864428 0.0 
0.132038 -0.00990071 0.0 
0.00778959 -0.00124013 0.0 
0.943185 -0.0160997 0.0 
1.01084 -0.00291401 0.0 
0.154073 -0.0292269 0.0 
0.920202 -0.00165343 0.0 
0.761657 0.104397 0.0 
0.996973 0.0236914 0.0 
0 0 0.0 
1.03217 -0.0968521 0.0 
0.924719 0.316378 0.0 
0.720056 0.30924 0.0 
0 0 0.0 
1.00568 0 0.0 
0.0130685 0.000372075 0.0 
0.82196 0.017056 0.0 
1.04746 0.208167 0.0 
0.857359 -0.0129231 0.0 
0.0802325 0.00125439 0.0 
1.00244 -0.00157408 0.0 
1.00461 -0.000290738 0.0 
0 0 0.0 
0.0480979 -0.00496779 0.0 
0.993594 0.00658684 0.0 
0.187036 0.00460106 0.0 
0.315493 0.044053 0.0 
0 0 0.0 
0 0 0.0 
0.948168 0.0166182 0.0 
1.00556 0.00154023 0.0 
0.347617 0.0150928 0.0 
0.725424 0.0673286 0.0 
0.397146 0.00446082 0.0 
0.891234 0.00944591 0.0 
0.859639 -0.137476 0.0 
0.0808204 0.0031559 0.0 
1.00515 -0.000259078 0.0 
0.503081 -0.0367922 0.0 
0.98072 -0.0676254 0.0 
0.0163875 0.000429588 0.0 
0.874251 -0.124912 0.0 
1.02737 -0.100681 0.0 
0.912706 0.324012 0.0 
1.0068 -0.00130039 0.0 
0.750292 0.107082 0.0 
0.942374 -0.0379889 0.0 
0.751131 0.131247 0.0 
0.686272 0.10477 0.0 
0.430578 0.133019 0.0 
0.743929 0.0768394 0.0 
0.346172 0.0126313 0.0 
0.182378 -0.0236119 0.0 
1.08054 -0.134738 0.0 
0.315458 0.0120746 0.0 
1.00858 -0.000688052 0.0 
0.888117 0.057888 0.0 
0.298954 0.0140771 0.0 
0 0 0.0 
1.0054 0.000526833 0.0 
0.695799 -0.0128642 0.0 
0.283692 0.00817411 0.0 
1.00866 -0.00141951 0.0 
0.00744136 -1.66559e-05 0.0 
1.00078 0.00125679 0.0 
0.950809 -0.00522157 0.0 
-3.4529e-249 2.20437e-250 0.0 
1.00922 -0.001573 0.0 
0.398132 0.0198289 0.0 
0.299418 0.0273422 0.0 
0.995236 -0.00722213 0.0 
1.00485 0.106926 0.0 
0 0 0.0 
1.00383 -0.00119984 0.0 
0.905988 -0.0266583 0.0 
1.00783 0.000132291 0.0 
1.00678 -0.000314909 0.0 
0.823235 -0.0623331 0.0 
0 0 0.0 
0.637292 0.00935427 0.0 
1.00401 -0.000100139 0.0 
0.00627717 0.000313041 0.0 
0.39603 -0.0358386 0.0 
1.00613 8.43454e-05 0.0 
0 0 0.0 
1.00312 0 0.0 
1.00353 -0.000340789 0.0 
1.00581 0 0.0 
0.528921 0.307631 0.0 
1.00592 -0.00235913 0.0 
0 0 0.0 
1.00521 -0.00193963 0.0 
0.000127454 2.01626e-05 0.0 
1.00059 0.000419073 0.0 
0.00255431 -0.000493169 0.0 
1.00527 -0.00169932 0.0 
0.381662 0.017614 0.0 
1.00971 0.000988093 0.0 
1.00614 -4.65097e-06 0.0 
1.00021 -0.00071462 0.0 
0.0207293 1.66574e-07 0.0 
1.00615 0.000179079 0.0 
1.00751 -0.0011982 0.0 
1.00531 -0.000148565 0.0 
1.08818 0.0641479 0.0 
0.604822 0.0330153 0.0 
0.999196 -0.0272768 0.0 
0.997123 -0.000595869 0.0 
0.253331 -0.175506 0.0 
1.00606 -8.53462e-05 0.0 
0.412433 -0.0165559 0.0 
0.992875 0.0590149 0.0 
0.978594 -0.0916853 0.0 
0.0602101 -0.0120466 0.0 
0.996147 -0.0454716 0.0 
1.07263 0.0737114 0.0 
1.0072 0.000163807 0.0 
1.02543 0.0117097 0.0 
0.999497 -5.84986e-05 0.0 
0.782238 -0.0535473 0.0 
0.0204492 0.000162198 0.0 
0.0781546 0.0278635 0.0 
0.422446 0.00196382 0.0 
0.0768298 0.0030759 0.0 
1.00042 0 0.0 
0.266115 -0.0109475 0.0 
1.00568 0.000532091 0.0 
1.00666 0.00134392 0.0 
1.00319 -0.000146024 0.0 
0.897499 0.0307672 0.0 
0.962052 0.273969 0.0 
0.886489 0.0119946 0.0 
0.0121256 0.000239778 0.0 
1.00808 0.000697302 0.0 
1.00832 0.000258959 0.0 
1.00938 -0.00218872 0.0 
0.126937 -0.011502 0.0 
0.967162 -0.188845 0.0 
1.00646 0.000210635 0.0 
1.00082 -0.00177784 0.0 
1.00343 -0.0128704 0.0 
0.7305 -0.016703 0.0 
0.212545 -0.0219484 0.0 
1.00806 -0.00106752 0.0 
0.586461 -0.0573674 0.0 
1.00721 0.000240399 0.0 
1.00341 -0.000364811 0.0 
0.0211167 -0.000232154 0.0 
0.930549 -0.339101 0.0 
0.577887 0.0712981 0.0 
0.503498 0.0140125 0.0 
0.169558 0.0583756 0.0 
0 0 0.0 
1.00623 -0.000270622 0.0 
0.895711 -0.385324 0.0 
1.00613 -0.000179072 0.0 
1.0053 -0.000341735 0.0 
1.00015 0 0.0 
1.00721 0.000196341 0.0 
1.00472 -0.000137052 0.0 
0.0371254 -0.00396402 0.0 
0 0 0.0 
0.0853158 0.002262 0.0 
0.950117 -0.259077 0.0 
1.02433 -0.00749583 0.0 
0 0 0.0 
1.00884 0.000460091 0.0 
0.980896 0.00546556 0.0 
0.787225 -9.18928e-05 0.0 
0.0252008 0.00171546 0.0 
0 0 0.0 
0.938097 0.0510051 0.0 
0.950311 0.0267856 0.0 
1.00129 0.00540548 0.0 
0.530605 0.0130409 0.0 
0 0 0.0 
1.00609 0.00237906 0.0 
0.9514 0.0614246 0.0 
0.0288408 -0.00441634 0.0 
1.00534 0.000417005 0.0 
0.96935 -0.0813143 0.0 
1.06471 0.0551699 0.0 
1.00094 0.0626242 0.0 
1.00779 -0.00363076 0.0 
2.95517e-05 -6.20956e-07 0.0 
0 0 0.0 
1.00381 0.147723 0.0 
1.0064 -0.000723438 0.0 
0.026657 -0.00196672 0.0 
1.00585 -7.35276e-05 0.0 
0.887065 -0.218415 0.0 
1.04264 0.00142412 0.0 
1.00528 0 0.0 
1.08765 0.0540073 0.0 
0.089106 0.00171381 0.0 
0.950042 0.028136 0.0 
0.03404 -0.00341533 0.0 
0.816678 0.211822 0.0 
1.62526e-45 -2.27349e-46 0.0 
0.460155 0.00138777 0.0 
1.0092 -0.0033063 0.0 
0.989276 0.00141102 0.0 
1.01296 -0.00547656 0.0 
1.00003 0.000335339 0.0 
0.0120526 0.000595734 0.0 
0.709489 -0.00577161 0.0 
0.0840952 0.0207282 0.0 
2.10538e-05 -2.41327e-06 0.0 
0.804555 0.20543 0.0 
0.787127 0.217372 0.0 
0.0576198 -0.0181915 0.0 
1.03405 0.233226 0.0 
1.00166 0.000229042 0.0 
0.543636 0.0100454 0.0 
0.675134 -0.0143514 0.0 
1.00457 -0.00031932 0.0 
1.00631 -0.000703812 0.0 
0.0374107 0.00160482 0.0 
1.00273 0 0.0 
1.00997 0.0239053 0.0 
0 0 0.0 
0.305432 0.0276403 0.0 
0.998496 -0.00208927 0.0 
0.765896 -0.0283433 0.0 
0.977589 0.0158367 0.0 
1.00576 0 0.0 
0.999969 -3.99334e-05 0.0 
1.00239 0.00250703 0.0 
0.644291 -0.0271066 0.0 
0.941426 0.000804556 0.0 
0.0252035 0.000783601 0.0 
0.893596 0.00299638 0.0 
1.004 -0.00234495 0.0 
1.0071 -0.000109516 0.0 
0.129861 -0.0173225 0.0 
1.00013 -0.000181811 0.0 
0.881837 0.242527 0.0 
0.147135 -0.0236754 0.0 
1.00543 0.000212687 0.0 
1.02119 -0.245412 0.0 
1.0059 -0.000268993 0.0 
1.0056 0.000708116 0.0 
1.00006 -0.000444773 0.0 
1.00554 -0.000249845 0.0 
1.00365 -0.000313271 0.0 
0.012718 -0.00108281 0.0 
1.00221 0.000778995 0.0 
0.859344 0.00176785 0.0 
0.754587 0.0115665 0.0 
0 0 0.0 
0.00344504 -0.000697938 0.0 
0.169397 -0.0201503 0.0 
0.747241 -0.0128774 0.0 
0.0886329 0.00146552 0.0 
0.42048 -0.00712322 0.0 
1.00475 -0.00159921 0.0 
1.00462 0 0.0 
0 0 0.0 
0.40783 0.0267302 0.0 
1.0063 0.000663676 0.0 
0.000521639 5.53113e-05 0.0 
1.00818 0.000674098 0.0 
0 0 0.0 
0.878215 -0.367575 0.0 
1.00681 0.000338484 0.0 
1.00642 -0.000447056 0.0 
0.915817 0.131059 0.0 
0.898866 -0.20838 0.0 
0.00161427 -0.000462892 0.0 
0.92748 0.0290744 0.0 
0 0 0.0 
0.336649 0.00502918 0.0 
0.00674772 -0.00124908 0.0 
0.815299 -0.0265868 0.0 
1.00729 -0.0013657 0.0 
0.994771 -0.30247 0.0 
0.258695 -0.0280159 0.0 
1 0.000129244 0.0 
1.00695 0.000587187 0.0 
0.993678 -0.00391336 0.0 
0.944496 0.000995689 0.0 
0 0 0.0 
0 0 0.0 
1.0072 0.000251382 0.0 
1.00607 -0.000664261 0.0 
0.312954 -0.002348 0.0 
0.979056 -0.0465491 0.0 
1.00657 -0.280659 0.0 
0 0 0.0 
1.00545 0 0.0 
0.251432 -0.0480144 0.0 
0.262971 0.18759 0.0 
1.0083 0.00140634 0.0 
0.00616327 -0.00114387 0.0 
0.820257 -0.0214519 0.0 
0.804961 -0.41364 0.0 
1.00655 0.000306964 0.0 
0.892308 -0.319083 0.0 
1.00275 0.00233945 0.0 
1e-307 1e-307 0.0 
0.312406 -0.112625 0.0 
0.943238 0.00371219 0.0 
0.821784 -0.0216575 0.0 
0.996494 -0.00110314 0.0 
1.00447 -0.00015016 0.0 
1.00012 0.000786086 0.0 
0 0 0.0 
0.999977 6.50401e-06 0.0 
0 0 0.0 
0.844807 -0.0236322 0.0 
0.884635 0.0251215 0.0 
1.0043 -6.35226e-05 0.0 
1.00004 -0.000234907 0.0 
1.03634 -0.253195 0.0 
0.985002 0.0444369 0.0 
1.00808 -0.00183235 0.0 
1.00562 0.000281198 0.0 
1.00771 6.41457e-05 0.0 
0.0264484 -0.00179574 0.0 
0 0 0.0 
0.452847 -0.307331 0.0 
1.00673 0.00075921 0.0 
1.00463 -0.000541401 0.0 
1.00613 -0.000422681 0.0 
0.739078 -0.0363494 0.0 
0.124351 0.0171119 0.0 
1.0289 -0.055932 0.0 
1.07091 0.153653 0.0 
1.00671 0.000409496 0.0 
1.006 -0.00172423 0.0 
0.347987 -0.00495489 0.0 
1.01745 0.017076 0.0 
0.499811 -0.352556 0.0 
0 0 0.0 
0.999699 0.0050535 0.0 
1.0072 0.000253186 0.0 
1.00649 -0.000109211 0.0 
1.00525 -0.00133347 0.0 
0.162206 0.00413412 0.0 
1.01328 0.00359961 0.0 
1.00723 -0.00105233 0.0 
0.216548 0.0678423 0.0 
0.976542 0.00108001 0.0 
1.02226 0.21795 0.0 
1.03025 0.0128279 0.0 
0.999999 0.000126599 0.0 
0.00646275 -0.000703356 0.0 
0.300383 0.126245 0.0 
7.40745e-53 -2.00725e-54 0.0 
0.713377 0.021786 0.0 
1.00586 -0.000823695 0.0 
0.0193282 -0.000316092 0.0 
0.833771 0.117391 0.0 
1.00013 -0.000259302 0.0 
1.20797e-83 -2.41724e-84 0.0 
0.999119 0.000422939 0.0 
0.175591 -0.0248386 0.0 
0.942841 0.267744 0.0 
7.9507e-08 -4.74739e-09 0.0 
0.265797 -0.0297733 0.0 
1.00741 -0.00159446 0.0 
0.783992 0.342775 0.0 
1.07977 -0.0940089 0.0 
0.988421 0.00391776 0.0 
0.0371676 -0.00625087 0.0 
0.999989 0.000294374 0.0 
1.00508 -0.000160033 0.0 
0.999992 2.86531e-05 0.0 
1.00445 -0.000240834 0.0 
1.00447 -0.0054987 0.0 
0.075158 0.0312129 0.0 
0.00112127 1.76504e-05 0.0 
1.00509 0.203683 0.0 
5.71569e-06 -3.61283e-07 0.0 
0.184029 -0.0201872 0.0 
0.996022 0.0233087 0.0 
0 0 0.0 
0.706606 -0.0460435 0.0 
0.190477 0.0129983 0.0 
0.961753 -0.0447095 0.0 
0.228902 0.0229129 0.0 
1.00819 0.00483599 0.0 
0.944835 -0.03358 0.0 
0 0 0.0 
0.0321328 -0.0023087 0.0 
1.00001 -0.000169891 0.0 
0.0142655 0.000965144 0.0 
1.00844 -0.00301625 0.0 
1.00667 -0.00055024 0.0 
1.00595 0 0.0 
1.00726 -0.000419145 0.0 
0.98755 0.00117333 0.0 
1.01111 -0.00389741 0.0 
1.01515 0.0207825 0.0 
0.300799 0.00832163 0.0 
1.0058 -0.000203751 0.0 
1.00057 0.00144249 0.0 
1.00469 0.000242723 0.0 
0.0485619 -0.0020341 0.0 
0.493308 -0.0224241 0.0 
1.01323 -0.000199197 0.0 
0.406868 0.00596453 0.0 
0.181797 0.0616839 0.0 
1.00496 0.00169523 0.0 
1.00589 -0.000675313 0.0 
1.00104 -0.00133073 0.0 
1.12241 0.0813372 0.0 
1.00461 0 0.0 
0.0110451 -5.20917e-05 0.0 
1.00079 0 0.0 
0.0192049 0.000823809 0.0 
1.00608 -0.000843394 0.0 
0 0 0.0 
1.00594 -5.1117e-05 0.0 
1.00617 0.000263852 0.0 
1.00585 -0.00139943 0.0 
1.00593 -2.1234e-05 0.0 
1.00562 -7.86298e-05 0.0 
1.03065 -0.0259612 0.0 
1.00747 0.000380195 0.0 
0 0 0.0 
1.00828 -0.000924805 0.0 
1.00706 0.000213071 0.0 
1.00764 0.00021612 0.0 
1.28101e-97 1.64641e-98 0.0 
1.00599 -6.11652e-05 0.0 
1.00663 -0.000691233 0.0 
1.00446 -0.00133109 0.0 
1.00997 -0.00181114 0.0 
1.00745 -0.00236986 0.0 
0.0645333 -0.00212578 0.0 
1.00703 0.000382465 0.0 
1.00605 0.000139579 0.0 
0.406071 -0.0978517 0.0 
1.00595 -0.00196286 0.0 
0.802683 0.319066 0.0 
0.0034991 -0.000346442 0.0 
1.02786 0.0204674 0.0 
0.962321 -0.0565824 0.0 
0 0 0.0 
1.00673 0.000473198 0.0 
0.997596 0.00165445 0.0 
1.0103 -0.10476 0.0 
0.00316345 -0.000592829 0.0 
0.902472 -0.00391686 0.0 
0.0198966 -0.00246473 0.0 
0.0140178 0.000995268 0.0 
0.999795 -0.000813096 0.0 
0.692316 0.00099144 0.0 
0.0120501 -0.00213779 0.0 
1.0047 -0.000253967 0.0 
1.00603 -2.24321e-05 0.0 
0.963595 -0.283042 0.0 
0.107959 -0.0153003 0.0 
0.283805 -0.0409082 0.0 
1.00574 -0.000403987 0.0 
0.0860228 0.00224291 0.0 
0.0307063 0.00082552 0.0 
0.924707 -0.305872 0.0 
0.997325 -0.000785228 0.0 
0.999356 0.000717261 0.0 
1.00663 0.000647895 0.0 
0 0 0.0 
1.00002 -0.000184107 0.0 
1.02111 0.0973847 0.0 
1.00488 0.00068089 0.0 
1.00729 0.000589485 0.0 
0.0228712 -0.00236428 0.0 
5.88275e-63 -1.80743e-63 0.0 
9.18371e-06 7.05314e-07 0.0 
1 0 0.0 
1.00024 0.000356904 0.0 
1.00621 -0.000382349 0.0 
0.0533044 0.00110894 0.0 
1.00513 -0.000183954 0.0 
1.01013 0.00418491 0.0 
1.01812 0.00925523 0.0 
0.705572 0.0132513 0.0 
1 0.000232191 0.0 
0.635792 0.014479 0.0 
0.88251 -0.000276668 0.0 
0.704883 0.090593 0.0 
0.812561 0.0140889 0.0 
1.00137 0.00281815 0.0 
0.138649 0.0022391 0.0 
1.00434 -0.000228808 0.0 
0.935432 -0.00376829 0.0 
1.00781 -0.00135717 0.0 
1.00034 -0.000232515 0.0 
1.00638 0.000219723 0.0 
1.0089 0.00191766 0.0 
1.00003 0.000300797 0.0 
0.137052 0.0378685 0.0 
1.00686 0.000466191 0.0 
1.00702 -0.000687941 0.0 
1.00627 -0.000345116 0.0 
0.99988 0.000976145 0.0 
1.00814 -0.00709119 0.0 
1.00541 -0.000171441 0.0 
1.00404 -0.000293739 0.0 
1.00579 5.99599e-05 0.0 
0.260742 0.022907 0.0 
1.00619 0.000316491 0.0 
1.00669 0.00084957 0.0 
0.384075 -0.0108303 0.0 
0.950634 0.03244 0.0 
0.936313 0.00377282 0.0 
0.501588 -0.0128082 0.0 
1.00519 0.00145402 0.0 
1.00838 0.0012999 0.0 
0.722938 -0.0308529 0.0 
0 0 0.0 
0.00642483 -0.001304 0.0 
1.00573 -0.00151811 0.0 
0.337945 0.0546724 0.0 
0.00328144 -0.000751304 0.0 
0.331862 -0.005864 0.0 
1.00546 0.000119414 0.0 
0.315502 0.0449323 0.0 
0.983895 0.139555 0.0 
0.00734475 -0.000139614 0.0 
0.203586 0.0173725 0.0 
0.920369 -0.00364849 0.0 
1.00365 -0.000444023 0.0 
1.00544 0.00113954 0.0 
1.00395 0.000252754 0.0 
1.00814 0.00202544 0.0 
1.00517 -0.000975697 0.0 
0.0216805 0.000534726 0.0 
0.0958822 0.0210443 0.0 
1.12521 0.0828532 0.0 
1.03995 -0.00262508 0.0 
0 0 0.0 
0.868788 -0.016412 0.0 
0.862239 0.0304516 0.0 
0.217924 -0.030372 0.0 
0 0 0.0 
0.030619 -0.0167976 0.0 
1.00542 6.51024e-05 0.0 
1.16447e-08 -2.41374e-10 0.0 
0.822093 0.167715 0.0 
0.00732692 0.000482647 0.0 
0.560869 -0.0356817 0.0 
1.0086 0.00109828 0.0 
1.00732 0.000950608 0.0 
1.00739 0.000254369 0.0 
1.00567 -0.0449567 0.0 
1.00714 0.00016606 0.0 
1.007 0.000717463 0.0 
1.01291 0.0262182 0.0 
1.00505 -0.00248661 0.0 
0.886785 -0.0210917 0.0 
0.998893 0.00447579 0.0 
1.00533 0.000947208 0.0 
0.999997 -0.000439558 0.0 
1.00174 -0.000506264 0.0 
4.85401e-86 1.44407e-87 0.0 
0.0135734 -0.00228276 0.0 
1.00519 -0.000510267 0.0 
1.00598 -5.73599e-05 0.0 
1.00469 -0.0028439 0.0 
1.00626 -0.000701417 0.0 
1.03898 0.0234053 0.0 
1.00422 -0.00150858 0.0 
1.00692 9.64647e-05 0.0 
0.0607121 -0.0131905 0.0 
0.0468056 0.0019279 0.0 
1.00635 -0.000748899 0.0 
0.790712 0.00189424 0.0 
1.00567 -0.000284029 0.0 
0.00976796 0.00046605 0.0 
0.620667 0.0268826 0.0 
1 -0.000953534 0.0 
1.00426 -0.00294281 0.0 
0.600035 0.0141779 0.0 
1.00691 0.000763014 0.0 
1.00647 -0.000740251 0.0 
0.440832 -0.0161904 0.0 
1.00614 -0.000685667 0.0 
0.955415 0.0281372 0.0 
0.00218855 9.1913e-07 0.0 
1.0074 -0.000742624 0.0 
1.00622 0.0011164 0.0 
1.0057 -0.000725797 0.0 
0.120404 -0.00728468 0.0 
0.0348877 0.0025486 0.0 
1.00373 -0.000229683 0.0 
0.999937 -0.00133849 0.0 
0.0286862 -9.65847e-05 0.0 
1.00411 -0.000248843 0.0 
0.996106 -0.0034596 0.0 
0.912905 -0.0161567 0.0 
1.00001 -0.000260699 0.0 
1.00007 -0.00021989 0.0 
0.861381 0.0313189 0.0 
0.274226 0.00412306 0.0 
1.00753 0.00027934 0.0 
1.00875 0.000183096 0.0 
0.970945 -0.037646 0.0 
1.05992 0.094735 0.0 
0.390409 0.138518 0.0 
0.514244 0.26405 0.0 
1.00725 0.000140207 0.0 
1.0071 0.000232222 0.0 
0.401888 0.00501737 0.0 
0.997473 0.0123328 0.0 
0.431747 0.00791006 0.0 
0 0 0.0 
1.00435 0.00131626 0.0 
1.00697 -0.000845039 0.0 
1.07069 -0.126301 0.0 
1.00547 -0.000950363 0.0 
1.00592 -0.000114269 0.0 
1.00456 -0.00166468 0.0 
1.00514 -0.000765292 0.0 
0.18157 0.000386022 0.0 
3.46109e-100 4.6628e-101 0.0 
0 0 0.0 
1.00519 0.00082371 0.0 
1.0053 -0.000760768 0.0 
0.388495 0.00546717 0.0 
1.00482 -0.000149288 0.0 
1.49658e-05 -1.37802e-06 0.0 
1.00656 -0.000234592 0.0 
0.0455871 -0.000191422 0.0 
1.00433 -0.000598605 0.0 
6.15954e-05 5.38512e-06 0.0 
0.893153 0.0140205 0.0 
0 0 0.0 
1.00008 -0.000692855 0.0 
0.0362592 -0.00714228 0.0 
1.0047 -0.000201884 0.0 
0.927459 -0.164265 0.0 
1.00128 -0.00669648 0.0 
0.403023 0.0315068 0.0 
0 0 0.0 
0.0361002 -0.0044545 0.0 
0.0106335 -0.0015234 0.0 
0.417251 0.00197789 0.0 
0.886163 0.0154885 0.0 
0.0358996 0.00363676 0.0 
0.433867 -0.000985534 0.0 
1.00797 -0.000146948 0.0 
0.834702 0.291746 0.0 
0.994505 -0.00138286 0.0 
1.00603 -0.00031521 0.0 
1.00738 0.00124328 0.0 
1.00414 -0.00253047 0.0 
1.00577 0.000130555 0.0 
1.00084 0.0168664 0.0 
1.00593 -3.44157e-05 0.0 
0.00815347 0.00011555 0.0 
1.00432 -0.000934231 0.0 
1.00674 -0.000654299 0.0 
1.0066 -0.00013275 0.0 
1.01063 -0.000442544 0.0 
0.395609 -0.00960441 0.0 
0.333696 -0.00158064 0.0 
0.353756 -0.0017609 0.0 
1.00591 0.000155733 0.0 
0.904531 -0.0944844 0.0 
1.00689 4.72907e-06 0.0 
0.78803 0.141134 0.0 
0.911011 -0.0563428 0.0 
1.00591 -0.00064249 0.0 
1.00633 0.000121338 0.0 
0.0706227 0.00991433 0.0 
1.00729 0.000101449 0.0 
1.00561 6.85425e-05 0.0 
0.346414 0.00100522 0.0 
1.00104 0.00239123 0.0 
1.43606e-165 7.66422e-167 0.0 
0.794214 -0.00123597 0.0 
0.999832 -0.000286438 0.0 
0.99767 0.00434448 0.0 
1.00453 -0.000537356 0.0 
1.00001 -0.000133746 0.0 
0.301792 0.0659602 0.0 
0.0189827 -0.00212387 0.0 
1.00516 -0.000546358 0.0 
0.599267 -0.000268123 0.0 
1.00322 0.00220731 0.0 
0.453453 0.207059 0.0 
1.00644 -0.000633964 0.0 
1.00763 -0.00193729 0.0 
0 0 0.0 
0.835442 -0.0515121 0.0 
1 -0.000255098 0.0 
0.322907 -0.234629 0.0 
0.389856 0.0862918 0.0 
0.0552027 0.000601177 0.0 
0.0312483 -0.0163294 0.0 
1.00236 0.00977301 0.0 
1.00497 0.0003185 0.0 
0.879524 0.0100335 0.0 
0.0147721 -0.00224003 0.0 
1.00502 -0.000738363 0.0 
1.00641 0.00123027 0.0 
0.698163 0.00428991 0.0 
0 0 0.0 
0.447512 -0.0175844 0.0 
0.998295 0.0016237 0.0 
0.235951 0.00419376 0.0 
0.999855 0.000379927 0.0 
0.482749 0.0678192 0.0 
1.00668 -0.0010619 0.0 
0.999847 0.00317453 0.0 
0.885347 -0.0549104 0.0 
0.0151709 -0.0280831 0.0 
1.00557 0.0002157 0.0 
1.00568 0.000469444 0.0 
0.970253 -0.0668257 0.0 
0.444016 0.174197 0.0 
0.948631 -0.0516389 0.0 
0.914746 -0.373167 0.0 
0.0251783 0.00166026 0.0 
1.00547 -0.00136709 0.0 
1.00591 0.000336997 0.0 
1.1169 0.0424102 0.0 
1.00833 0.000591007 0.0 
1.00632 0.00123395 0.0 
0.99663 0.00182368 0.0 
0.518719 -0.0464298 0.0 
1.00639 -7.58543e-05 0.0 
0.566371 -0.0174354 0.0 
1.00465 -0.000242133 0.0 
0.999761 0.001851 0.0 
0.897621 0.137596 0.0 
1.00518 5.38241e-05 0.0 
1.00699 -0.000324645 0.0 
1.00557 0 0.0 
0.883659 -0.0205618 0.0 
0.471224 -0.0224273 0.0 
0.0809209 0.0549646 0.0 
1.00558 0.00100661 0.0 
1.01955 -0.0937999 0.0 
1.00058 -0.000419375 0.0 
0.607917 0.0304156 0.0 
0.0456349 -0.00490596 0.0 
1.0015 0.00123448 0.0 
1.00395 -0.00147519 0.0 
1.00483 -0.00154046 0.0 
1.00683 -0.000833058 0.0 
0.572399 0.00186754 0.0 
1.00559 -0.000200576 0.0 
1.00713 0.000257215 0.0 
0 0 0.0 
1.01155 -0.0134685 0.0 
1.00601 -4.28514e-06 0.0 
1.00617 0.000397781 0.0 
0.00378481 -0.000809534 0.0 
1.00333 0 0.0 
1.00598 0.000126766 0.0 
0.914635 0.0302351 0.0 
1.00132 0.000847206 0.0 
0.656449 0.0110207 0.0 
0.612307 -0.431432 0.0 
1.00601 -0.000415346 0.0 
4.75634e-05 -5.02543e-06 0.0 
0.00352847 -0.000659321 0.0 
1.00124 -0.00226542 0.0 
1.00845 -0.0021542 0.0 
0.0469148 -0.00800686 0.0 
1.00662 -0.000854259 0.0 
0.000904118 0.000117601 0.0 
1.00714 -0.000514661 0.0 
1.00381 -0.00173611 0.0 
0.974314 -0.0229728 0.0 
1.00419 -0.00203227 0.0 
1.00355 0.000852663 0.0 
0.165756 0.00477128 0.0 
1.0066 0.000488893 0.0 
1.00097 -0.000853167 0.0 
1.00012 -0.000687 0.0 
0.939881 -0.283585 0.0 
0.999478 0.000172044 0.0 
0.951852 0.0225654 0.0 
0.157184 0.00866486 0.0 
1.00643 -0.00126671 0.0 
1.00464 -0.00348334 0.0 
1.00358 0.00444164 0.0 
0.999923 9.47401e-06 0.0 
1.00769 -0.00505938 0.0 
1.00029 0.000673292 0.0 
0.00927821 0.000516998 0.0 
0.192204 0.0666161 0.0 
0.00923805 0.000920506 0.0 
1.00991 -0.0035668 0.0 
2.68993e-89 6.8771e-91 0.0 
1.11439 0.089947 0.0 
0.831029 0.333691 0.0 
1.00263 0.151178 0.0 