<VTKFile type="UnstructuredGrid" version="0.1" byte_order="LittleEndian">
  <UnstructuredGrid>
    <Piece NumberOfPoints="13843" NumberOfCells="27497">
      <Points>
        <DataArray type = "Float64" NumberOfComponents="3" format="ascii">
0 0 0.0 
14 0 0.0 
14 8 0.0 
0 8 0.0 
10.4118 5.08662 0.0 
4.52388 3.99699 0.0 
4.09731 3.96439 0.0 
6.29269 4.66873 0.0 
0.382322 2.91093 0.0 
4.15182 4.0426 0.0 
4.0195 4.0195 0.0 
4.01084 3.97813 0.0 
4.07798 4.03513 0.0 
4.07057 3.9639 0.0 
4.53824 7.43039 0.0 
7.39132 0.561385 0.0 
3.98741 4.04054 0.0 
3.98768 4.02653 0.0 
9.58301 3.65293 0.0 
4.66755 4.00262 0.0 
4.34851 4.01258 0.0 
0.151059 5.05835 0.0 
4.20728 3.96253 0.0 
4.00535 3.95189 0.0 
4.67405 4.10923 0.0 
4.08988 4.60135 0.0 
4.80484 4.03022 0.0 
4.61584 4.00791 0.0 
4.41203 4.0358 0.0 
12.1265 0 0.0 
0.899903 3.25578 0.0 
4.81624 4.13542 0.0 
6.16481 4.20631 0.0 
4.39143 3.97849 0.0 
4.01411 4.01149 0.0 
4.13489 4.05432 0.0 
4.46839 4.03707 0.0 
4.42101 4.01435 0.0 
4.5132 4.01165 0.0 
4.14348 4.01371 0.0 
4.48435 4.03561 0.0 
0 3.36284 0.0 
4.16938 4.044 0.0 
4.26833 4.04352 0.0 
4.27067 4.04387 0.0 
4.21939 3.9751 0.0 
5.53097 4.162 0.0 
4.0273 4.01367 0.0 
4.2975 4.01475 0.0 
4.17138 4.04945 0.0 
4.62342 4.01415 0.0 
4.31306 4.02997 0.0 
5.17517 4.1161 0.0 
4.20536 3.969 0.0 
4.1357 3.98527 0.0 
4.20759 4.0454 0.0 
4.12607 4.05951 0.0 
4.01787 3.95968 0.0 
4.2483 4.03635 0.0 
4.07495 3.98612 0.0 
4.0955 3.94899 0.0 
4.03444 4.04627 0.0 
4.00163 4.02959 0.0 
4.02005 3.99731 0.0 
5.23503 8 0.0 
4.30375 3.97965 0.0 
4.38566 3.98162 0.0 
5.24938 4.02911 0.0 
4.01876 4.02231 0.0 
4.94362 3.9337 0.0 
6.35922 4.4625 0.0 
5.35217 4.0931 0.0 
1.36116 1.78512 0.0 
4.18323 3.97478 0.0 
5.11565 4.0758 0.0 
3.04298 2.00142 0.0 
3.97586 4.01385 0.0 
4.11054 3.95071 0.0 
4.02875 4.02049 0.0 
4.17927 4.0422 0.0 
4.06283 4.06675 0.0 
4.04672 4.0202 0.0 
4.94501 3.90266 0.0 
5.26322 4.0124 0.0 
4.54772 3.97659 0.0 
3.96947 4.02134 0.0 
4.06959 3.97574 0.0 
7.16763 4.21956 0.0 
3.96297 3.96024 0.0 
4.21254 3.97074 0.0 
4.15932 4.03394 0.0 
4.47143 4.03456 0.0 
4.11692 3.94964 0.0 
5.99717 3.78565 0.0 
3.95785 3.95439 0.0 
4.06521 4.00008 0.0 
4.02972 4.04518 0.0 
4.54639 4.00884 0.0 
8.79181 7.69132 0.0 
3.97141 4.03046 0.0 
4.03239 3.93948 0.0 
3.97561 4.03322 0.0 
3.97816 4.02179 0.0 
4.04633 4.03304 0.0 
3.96767 4.02507 0.0 
4.53971 3.97638 0.0 
4.01302 3.99088 0.0 
13.4653 0.705634 0.0 
4.54225 3.97864 0.0 
4.78114 3.8923 0.0 
4.39529 4.01234 0.0 
4.1796 3.98666 0.0 
4.54991 3.98013 0.0 
4.47514 4.04499 0.0 
4.09603 3.06642 0.0 
5.96694 3.88013 0.0 
10.358 3.36045 0.0 
4.73521 7.52615 0.0 
4.23026 3.94228 0.0 
13.7283 2.46074 0.0 
4.06501 4.00808 0.0 
4.0005 3.94996 0.0 
4.21259 3.97823 0.0 
4.8328 4.09857 0.0 
4.06171 3.97809 0.0 
4.53839 4.00609 0.0 
4.11581 4.05249 0.0 
4.30004 3.97508 0.0 
5.18264 3.78266 0.0 
4.25624 4.07298 0.0 
14 0.786869 0.0 
0 1.32503 0.0 
4.22376 3.98782 0.0 
4.10117 3.96057 0.0 
12.282 6.14857 0.0 
4.18423 4.04637 0.0 
4.42851 4.03701 0.0 
6.6627 2.29498 0.0 
6.37297 2.73989 0.0 
6.50541 6.65271 0.0 
4.0914 3.96216 0.0 
14 7.50949 0.0 
5.20281 3.96498 0.0 
4.01369 3.97538 0.0 
7.59273 3.97839 0.0 
5.14412 4.10307 0.0 
12.6474 3.41509 0.0 
4.05312 3.99197 0.0 
13.7435 8 0.0 
4.11702 4.02719 0.0 
6.67367 0 0.0 
4.01151 3.88232 0.0 
6.82471 4.26136 0.0 
3.63145 3.86591 0.0 
4.19021 3.98839 0.0 
4.05761 3.9979 0.0 
4.12466 3.79543 0.0 
5.25615 4.08216 0.0 
5.2347 3.94759 0.0 
4.09504 3.98323 0.0 
4.06758 3.97376 0.0 
6.22735 7.50315 0.0 
4.23206 4.07447 0.0 
4.52021 3.97966 0.0 
0.255049 4.91335 0.0 
4.00932 4.01975 0.0 
8.95603 7.57132 0.0 
0.21871 6.38498 0.0 
4.68907 3.98236 0.0 
3.98122 4.01031 0.0 
11.5703 4.18823 0.0 
4.02022 3.98429 0.0 
4.17858 4.03055 0.0 
0 1.05288 0.0 
4.12367 4.0047 0.0 
4.33079 4.04078 0.0 
11.3934 4.07618 0.0 
4.0462 4.33714 0.0 
4.50642 4.02325 0.0 
4.54778 4.01674 0.0 
4.08927 3.9549 0.0 
4.1934 3.98721 0.0 
4.22147 4.0961 0.0 
4.38236 4.01267 0.0 
4.50172 4.01695 0.0 
3.96367 4.04432 0.0 
4.09428 3.96323 0.0 
5.08295 4.06476 0.0 
4.36731 3.99373 0.0 
13.0308 3.29431 0.0 
4.48933 4.03021 0.0 
3.86728 3.14716 0.0 
4.18329 3.96996 0.0 
4.00011 4.0245 0.0 
3.97414 4.04859 0.0 
12.0372 1.49526 0.0 
7.30245 3.17813 0.0 
4.53309 3.99813 0.0 
10.4619 3.53679 0.0 
4.39789 4.02787 0.0 
5.11537 3.91723 0.0 
4.41271 3.97795 0.0 
3.97018 4.04275 0.0 
4.18828 4.05403 0.0 
6.38052 3.13775 0.0 
5.9291 5.15993 0.0 
13.6419 7.13941 0.0 
4.39931 3.99458 0.0 
9.4176 1.73395 0.0 
5.30431 4.34688 0.0 
5.24537 4.1668 0.0 
4.20501 3.97964 0.0 
3.99912 4.07116 0.0 
4.00485 3.95979 0.0 
4.4334 4.47556 0.0 
8.35832 2.9685 0.0 
13.4699 7.45697 0.0 
4.05629 4.04137 0.0 
4.01229 3.97705 0.0 
4.06076 3.97364 0.0 
4.54933 4.03682 0.0 
4.18918 4.0885 0.0 
4.09808 4.03387 0.0 
4.41909 4.02738 0.0 
4.00577 3.97873 0.0 
4.46979 4.03982 0.0 
4.05741 4.03191 0.0 
6.95071 5.02437 0.0 
4.53115 4.00736 0.0 
7.62224 2.88267 0.0 
7.22419 0.703495 0.0 
6.70909 6.94059 0.0 
4.5153 4.0292 0.0 
4.14778 3.96946 0.0 
4.18873 3.97979 0.0 
4.23244 4.06965 0.0 
5.282 3.91625 0.0 
5.8599 3.0813 0.0 
4.55271 3.9988 0.0 
3.9757 3.93339 0.0 
4.08079 4.03605 0.0 
12.8262 0.365959 0.0 
4.48096 4.00719 0.0 
4.6103 3.91602 0.0 
3.99211 4.1345 0.0 
4.55049 4.00816 0.0 
2.0145 6.16839 0.0 
4.11575 4.03408 0.0 
4.01131 4.24693 0.0 
4.20274 4.07949 0.0 
4.44692 4.31384 0.0 
12.5015 1.14918 0.0 
4.09797 3.95385 0.0 
4.23052 4.09368 0.0 
4.20868 4.08388 0.0 
2.02311 6.41626 0.0 
4.05954 4.04241 0.0 
4.07612 4.03273 0.0 
4.00498 4.00961 0.0 
6.95962 7.64891 0.0 
4.4677 3.99653 0.0 
4.1403 4.03691 0.0 
5.23381 4.10303 0.0 
4.06573 4.03448 0.0 
5.29821 4.05806 0.0 
5.1241 4.03892 0.0 
8.82235 8 0.0 
4.94068 3.97103 0.0 
4.05395 4.11029 0.0 
4.2355 4.09935 0.0 
4.57278 4.01593 0.0 
4.15863 3.96029 0.0 
4.01703 7.79668 0.0 
4.94303 3.98314 0.0 
4.06329 4.04721 0.0 
4.22308 4.09104 0.0 
4.18805 3.96826 0.0 
2.3455 6.64237 0.0 
7.97633 2.05223 0.0 
4.32637 4.10272 0.0 
0.417479 6.31883 0.0 
4.69269 3.91129 0.0 
5.45655 5.22819 0.0 
4.36996 3.99441 0.0 
3.92397 4.08292 0.0 
4.55293 4.00058 0.0 
4.14238 4.04508 0.0 
4.05954 3.98625 0.0 
4.57553 4.01147 0.0 
3.99155 4.04247 0.0 
3.99093 4.05263 0.0 
3.98858 4.04648 0.0 
3.97296 4.00674 0.0 
11.3714 7.19716 0.0 
9.192 5.81999 0.0 
4.00175 4.00676 0.0 
3.53429 0 0.0 
4.67134 3.89044 0.0 
9.48355 2.606 0.0 
11.016 2.69137 0.0 
2.30378 3.03595 0.0 
4.52134 4.01095 0.0 
4.08952 4.02996 0.0 
7.40997 8 0.0 
4.02321 3.97317 0.0 
2.86414 6.59491 0.0 
4.08252 4.03623 0.0 
4.06419 4.05585 0.0 
4.38661 4.01449 0.0 
4.55042 3.99978 0.0 
10.4908 7.41058 0.0 
6.78993 2.13526 0.0 
4.625 3.98277 0.0 
0.846754 0.565038 0.0 
4.05729 4.02647 0.0 
4.36933 4.07623 0.0 
3.27981 4.42348 0.0 
1.2142 8 0.0 
7.59973 7.22298 0.0 
12.6277 1.80732 0.0 
14 4.58149 0.0 
5.85073 0.410811 0.0 
13.0902 7.46595 0.0 
1.97176 2.13711 0.0 
4.02912 3.96643 0.0 
3.9878 3.95947 0.0 
4.66421 4.02949 0.0 
4.53746 3.98764 0.0 
4.51303 3.98607 0.0 
4.37597 4.03362 0.0 
3.96066 4.00697 0.0 
8.40952 2.0809 0.0 
3.96376 4.05355 0.0 
13.1661 5.68046 0.0 
13.7895 0 0.0 
4.10795 4.02897 0.0 
4.96192 4.01968 0.0 
11.4357 2.10385 0.0 
3.93138 3.94847 0.0 
4.15928 3.98651 0.0 
4.00791 4.0033 0.0 
4.0088 3.9805 0.0 
9.75515 2.36072 0.0 
11.3713 7.83957 0.0 
4.67147 4.01238 0.0 
4.02947 3.97325 0.0 
4.72728 4.01388 0.0 
4.6454 3.91884 0.0 
4.01129 4.00596 0.0 
4.01486 4.01626 0.0 
4.12316 4.04118 0.0 
4.05907 4.0108 0.0 
4.88598 3.98097 0.0 
4.01755 3.97046 0.0 
4.05391 4.05233 0.0 
3.8771 3.99789 0.0 
4.22917 4.04439 0.0 
4.58489 4.49694 0.0 
4.27599 3.98844 0.0 
2.61514 0.506135 0.0 
3.5992 3.72344 0.0 
4.05373 4.0206 0.0 
4.0593 4.0207 0.0 
4.28714 4.04003 0.0 
4.52442 4.04136 0.0 
4.11868 3.97589 0.0 
4.15516 3.94365 0.0 
4.21078 3.98014 0.0 
4.01683 3.96357 0.0 
8.32777 8 0.0 
4.19264 4.05366 0.0 
4.67073 4.01825 0.0 
4.90838 4.00371 0.0 
4.32046 1.78584 0.0 
4.43057 3.97337 0.0 
4.00437 3.9841 0.0 
4.61115 4.9691 0.0 
4.0134 3.97877 0.0 
3.03193 6.72582 0.0 
4.36687 3.99459 0.0 
4.01079 3.9893 0.0 
6.41908 4.1771 0.0 
4.36156 4.08272 0.0 
4.01572 4.1187 0.0 
7.58471 5.24477 0.0 
4.00239 3.93806 0.0 
4.46335 4.0213 0.0 
2.5098 3.59854 0.0 
4.21036 4.03335 0.0 
4.16115 4.02728 0.0 
4.21732 4.03352 0.0 
4.53888 4.02662 0.0 
11.5792 7.84461 0.0 
0.551344 1.2516 0.0 
4.02575 3.96118 0.0 
1.03284 2.15008 0.0 
3.99474 4.00051 0.0 
4.13336 4.04339 0.0 
4.06875 4.0898 0.0 
4.00964 3.98933 0.0 
4.00094 4.00708 0.0 
4.35259 4.00908 0.0 
13.0672 7.81526 0.0 
11.8351 6.74811 0.0 
4.14091 4.04918 0.0 
4.1127 3.96242 0.0 
6.49707 5.21788 0.0 
4.15116 3.93854 0.0 
4.13176 4.07898 0.0 
10.2186 2.28825 0.0 
4.00988 3.97037 0.0 
4.63116 3.8826 0.0 
0.762216 5.13111 0.0 
4.10493 4.03748 0.0 
4.00279 3.99128 0.0 
4.05385 4.00986 0.0 
4.85809 4.01513 0.0 
4.55145 4.02801 0.0 
4.97511 3.97459 0.0 
6.32476 7.00417 0.0 
12.5996 5.63737 0.0 
4.35913 3.98941 0.0 
4.19855 4.03407 0.0 
4.35585 3.99379 0.0 
4.64282 4.00425 0.0 
4.27033 4.04299 0.0 
3.98925 4.0579 0.0 
4.20862 3.97868 0.0 
11.5808 3.97719 0.0 
4.98706 3.92999 0.0 
4.0422 3.9916 0.0 
2.15974 5.93568 0.0 
3.96806 4.01296 0.0 
11.0968 5.75296 0.0 
3.10914 5.59568 0.0 
4.48131 4.01682 0.0 
3.99732 3.99732 0.0 
4.49528 3.99687 0.0 
13.4868 6.98364 0.0 
4.5467 4.03146 0.0 
3.31161 1.01031 0.0 
11.1865 7.25481 0.0 
4.4216 3.9754 0.0 
7.20657 5.05296 0.0 
3.05391 4.40989 0.0 
9.11333 4.20632 0.0 
4.11252 3.99718 0.0 
4.53501 4.00657 0.0 
4.1419 4.04331 0.0 
4.05915 4.07796 0.0 
0.198711 3.79297 0.0 
4.72583 0.194576 0.0 
4.76323 3.98313 0.0 
4.53584 4.04123 0.0 
4.09468 4.03942 0.0 
4.59479 4.03872 0.0 
5.30927 0.171783 0.0 
4.53314 4.01512 0.0 
4.52647 4.01399 0.0 
6.26265 7.14539 0.0 
4.73668 3.89169 0.0 
4.77966 4.48574 0.0 
3.96886 4.00175 0.0 
4.00773 4.00001 0.0 
4.66008 4.0462 0.0 
3.5813 4.19569 0.0 
4.63904 3.99673 0.0 
4.05103 4.00091 0.0 
4.82507 4.1106 0.0 
4.37602 3.98858 0.0 
4.36261 4.03665 0.0 
0.347962 1.57688 0.0 
2.9211 4.80679 0.0 
4.70958 7.08222 0.0 
4.53196 4.00581 0.0 
[...]
<PointData>
  <DataArray type = "Float64" Name="Vitesse" NumberOfComponents="3" format="ascii">
1 0 0.0 
1.00028 0 0.0 
0.999845 0 0.0 
1 0 0.0 
0.998966 -0.000432028 0.0 
0.0313008 0.00109369 0.0 
0.738292 -0.0453598 0.0 
1.00832 -0.00776086 0.0 
0.99997 -0.000129997 0.0 
4.25831e-06 2.57744e-07 0.0 
0.204986 0.100205 0.0 
0.916334 -0.350761 0.0 
0.0712633 0.0137894 0.0 
0.875137 -0.0938905 0.0 
1.00496 0.000579969 0.0 
1.00432 0.000441976 0.0 
0.775081 0.197538 0.0 
0.683412 0.189302 0.0 
0.997393 0.00408285 0.0 
0.195488 0.00579014 0.0 
0 0 0.0 
0.999998 0.000129477 0.0 
0.576306 -0.00102305 0.0 
0.9622 -0.231089 0.0 
0.961645 -0.0460893 0.0 
1.01986 0.0271856 0.0 
0.375827 -0.0175182 0.0 
0.119043 -0.00174048 0.0 
0.091229 -0.0101618 0.0 
1.00065 0 0.0 
0.999773 -0.000196445 0.0 
1.00337 -0.0320489 0.0 
1.00779 -0.00829869 0.0 
0.26545 0.00703528 0.0 
-5.2058e-282 -2.71268e-282 0.0 
0.540577 0.0600305 0.0 
0.164224 -0.0186392 0.0 
-1.0274e-260 1.52029e-262 0.0 
0.0051326 -0.000881797 0.0 
0 0 0.0 
0.163029 -0.0187627 0.0 
1 0 0.0 
0.0312267 -0.0021564 0.0 
0.0370169 -0.00327706 0.0 
0.0477011 -0.00342035 0.0 
0.297262 0.00522715 0.0 
0.997064 -0.0113722 0.0 
0 0 0.0 
0 0 0.0 
0.217536 0.0100094 0.0 
0.13368 -0.0099167 0.0 
0 0 0.0 
0.947801 -0.0174333 0.0 
0.43435 0.00284588 0.0 
0.0399181 0.00342538 0.0 
0.0398127 -0.00123306 0.0 
0.763424 0.104742 0.0 
1.01037 -0.263088 0.0 
0 0 0.0 
0.00190469 -2.36e-05 0.0 
1.03277 -0.0965825 0.0 
0.925506 0.317172 0.0 
0.720924 0.308978 0.0 
0 0 0.0 
1.00512 0 0.0 
0.222291 0.00641278 0.0 
0.214116 0.00623557 0.0 
0.564012 -0.00772413 0.0 
0.431471 0.204984 0.0 
0.815096 0.0189614 0.0 
1.00879 -0.00856734 0.0 
0.869282 -0.0147216 0.0 
1.00012 -0.000809638 0.0 
0.30757 0.00374783 0.0 
0.781536 -0.0195746 0.0 
1.00147 -0.00316103 0.0 
0.666134 0.0456063 0.0 
0.982392 -0.0720042 0.0 
0 0 0.0 
-2.61186e-49 -4.27568e-51 0.0 
1.03361 0.255912 0.0 
0 0 0.0 
0.950246 0.0171999 0.0 
0.532362 -0.00327166 0.0 
0.3494 0.0152079 0.0 
0.726258 0.0676491 0.0 
0.445754 -0.0301782 0.0 
1.00339 -0.0135862 0.0 
0.860089 -0.137106 0.0 
0.393137 0.00410593 0.0 
0 0 0.0 
0.139098 -0.0164936 0.0 
0.981629 -0.0674868 0.0 
1.0057 0.00375969 0.0 
0.874721 -0.124558 0.0 
0 0 0.0 
0.913325 0.324589 0.0 
0.0186394 -0.00403121 0.0 
1.00144 -0.000329864 0.0 
0.751128 0.107253 0.0 
1.03646 -0.189386 0.0 
0.751749 0.13155 0.0 
0.68721 0.10509 0.0 
0.433522 0.134338 0.0 
0.74473 0.0771344 0.0 
0.347903 0.0127137 0.0 
0.000100121 -3.04326e-05 0.0 
1.00032 9.95691e-05 0.0 
0.317089 0.0121674 0.0 
0.989794 0.0218963 0.0 
0 0 0.0 
0.0392521 0.000696438 0.0 
0.300611 0.0141444 0.0 
0.269295 -0.0263825 0.0 
1.00826 -0.0120219 0.0 
0.95359 0.00423477 0.0 
0.999257 0.00180735 0.0 
1.00508 0.000377878 0.0 
0.900005 -0.0163661 0.0 
1.00011 0.000212915 0.0 
0 0 0.0 
0.948333 -0.21861 0.0 
0.229375 0.00435837 0.0 
0.899546 -0.0343185 0.0 
0.379855 -0.0267071 0.0 
0.0021706 -0.000356923 0.0 
0.58414 0.0839019 0.0 
0.303864 0.00727353 0.0 
1.01034 0.00781097 0.0 
0.738872 0.00959705 0.0 
1.00026 8.01757e-05 0.0 
1 0 0.0 
0.0383254 0.00224562 0.0 
0.826716 -0.0548727 0.0 
0.999754 -4.19082e-05 0.0 
0.0849111 0.00187963 0.0 
0.123396 -0.013351 0.0 
1.00619 0.00159174 0.0 
1.0071 0.00186222 0.0 
1.00501 -0.00181233 0.0 
0.82429 -0.0624412 0.0 
0.999842 -1.22658e-07 0.0 
0.642675 0.0101789 0.0 
0.950832 -0.3289 0.0 
0.878872 -0.00389549 0.0 
0.908562 -0.018551 0.0 
0.999907 0.000374115 0.0 
0 0 0.0 
0.999846 0 0.0 
0 0 0.0 
1.00467 0 0.0 
0.997873 -0.115111 0.0 
1.00674 -0.0111728 0.0 
0.972194 -0.010829 0.0 
0.0104866 0.000785789 0.0 
0 0 0.0 
1.03579 -0.0596674 0.0 
0.822723 -0.0167961 0.0 
0.740904 0.0108748 0.0 
0.0892641 -0.000428744 0.0 
0.543095 -0.0429219 0.0 
1.00485 -0.000474286 0.0 
0.80754 0.0262778 0.0 
0.291196 0.00811579 0.0 
0.999989 0.00020523 0.0 
0.530496 0.305462 0.0 
1.00125 -0.000434829 0.0 
1.00001 0.000165435 0.0 
0.34795 0.0230025 0.0 
0.605688 0.0335324 0.0 
0.999471 0.000405271 0.0 
0.474428 -0.121326 0.0 
0 0 0.0 
1 0 0.0 
0 0 0.0 
0.0630251 -0.00593679 0.0 
0.9994 0.00049726 0.0 
1.01959 0.0586645 0.0 
0.0684153 -0.00997413 0.0 
0.0611874 -0.0121851 0.0 
0.980299 -0.0919979 0.0 
0.0342074 0.000605756 0.0 
1.08897 0.0646543 0.0 
0 0 0.0 
0.0220301 -0.00384715 0.0 
0.810265 0.109822 0.0 
0.783469 -0.0537602 0.0 
0.713132 -0.0196367 0.0 
0.0172979 0.00167858 0.0 
0.999964 0.000309646 0.0 
0.112246 -0.0140735 0.0 
1.00402 -0.0134615 0.0 
0.423559 0.00203655 0.0 
0.661355 0.310536 0.0 
0.812452 0.145399 0.0 
1.00047 0.000449803 0.0 
1.00644 0.00311814 0.0 
0.0166551 0.000921663 0.0 
0.999036 0.00153736 0.0 
0 0 0.0 
0.887488 0.0126464 0.0 
0.280162 0.00709538 0.0 
0.796828 0.127129 0.0 
0.342114 0.0154486 0.0 
1.0078 0.00228658 0.0 
1.0089 -0.00516522 0.0 
0.999839 -4.55698e-07 0.0 
0.0213101 0.00128614 0.0 
1.00199 0.00180182 0.0 
1.01269 -0.0113341 0.0 
1.0045 -0.0144465 0.0 
0.197761 0.00416194 0.0 
0.893648 0.201428 0.0 
0.950707 -0.262683 0.0 
1.03945 0.00893448 0.0 
1.00336 0.00495356 0.0 
0.999842 -3.1473e-06 0.0 
0.691196 0.191832 0.0 
0.930937 -0.339033 0.0 
0.591579 -0.0558073 0.0 
0.235438 -0.030458 0.0 
1.0732 0.0899186 0.0 
0 0 0.0 
0.0120178 -0.00083834 0.0 
0.895995 -0.385109 0.0 
0.19817 -0.0213336 0.0 
0.150019 0.0398714 0.0 
1.00482 -0.0072044 0.0 
0.00164161 -0.00021075 0.0 
1.00578 0.00348762 0.0 
1.00449 0.000513476 0.0 
1.00447 -0.00145062 0.0 
0.127203 -0.0165551 0.0 
0.468827 -0.00293313 0.0 
0.191778 0.00382901 0.0 
0.700399 0.0179001 0.0 
0.884767 0.0099801 0.0 
1.00868 0.00191211 0.0 
0.0124187 0.00117695 0.0 
0.927284 -0.146958 0.0 
0.0922282 0.021527 0.0 
1.00045 7.73579e-05 0.0 
-1.24296e-240 1.30689e-241 0.0 
0.951969 0.027097 0.0 
0.961619 0.13009 0.0 
0.0197848 -0.0047257 0.0 
1.00079 0.00212725 0.0 
0 0 0.0 
1.00734 0.0817808 0.0 
0.953169 0.061567 0.0 
1.05872 0.00239293 0.0 
1.00044 0.00027786 0.0 
0.970158 -0.0812503 0.0 
1.06629 0.0550558 0.0 
1.00256 0.0627048 0.0 
1.00093 0.00186057 0.0 
0.693816 0.184755 0.0 
6.42522e-83 1.56403e-83 0.0 
0.0700024 0.0587371 0.0 
1.00391 -0.000475773 0.0 
0.0212819 0.000469428 0.0 
0 0 0.0 
0.906767 -0.0172359 0.0 
0.188281 0.0435872 0.0 
0.703492 -0.0136919 0.0 
0.569545 -0.0129372 0.0 
1.00143 0 0.0 
0.551066 0.0149624 0.0 
1.01737 0.183097 0.0 
1.09269 0.0560728 0.0 
0.074515 -0.0241558 0.0 
0.687699 -0.0137643 0.0 
1.00412 0.000283636 0.0 
0.474904 0.0108737 0.0 
0.819572 0.212208 0.0 
1.05487 0.0582397 0.0 
0.461267 0.00119941 0.0 
1.00143 0.00189544 0.0 
1.0042 0.00237308 0.0 
1.0486 0.00365784 0.0 
1.00003 0.00033158 0.0 
0.952496 0.0286916 0.0 
1.01102 -0.0034923 0.0 
0.00913018 0.000339238 0.0 
0.898644 0.0761817 0.0 
1.33458e-125 -7.15441e-128 0.0 
0.130193 0.0112436 0.0 
0.000206023 -2.05722e-05 0.0 
0.0584892 -0.0183458 0.0 
0.787449 0.217678 0.0 
0.830499 0.204277 0.0 
0.80357 0.200396 0.0 
0.675849 -0.0139013 0.0 
0.999932 -0.000138742 0.0 
0.9998 -0.00186577 0.0 
0.0686531 0.0860014 0.0 
1.00256 0 0.0 
1.0109 0.024418 0.0 
1.00119 0.00298974 0.0 
1.00009 0.00116897 0.0 
0.998517 -0.0019934 0.0 
0.00838019 -0.00147868 0.0 
0 0 0.0 
1.00323 0 0.0 
0.950707 -0.259174 0.0 
1.00237 0.0024295 0.0 
0.0829763 0.0174118 0.0 
0.979285 0.253256 0.0 
-1.29442e-255 1.9154e-257 0.0 
9.11918e-06 5.01272e-07 0.0 
1.00019 -0.000229555 0.0 
1.00586 0.00153305 0.0 
0.299141 0.0273053 0.0 
1.00012 -0.00017607 0.0 
4.39838e-88 1.32295e-88 0.0 
0.722277 -0.025791 0.0 
0.991933 0.0102926 0.0 
1.00041 0 0.0 
1.00296 -0.00113242 0.0 
1.00029 0.000363377 0.0 
0.999892 0.000105561 0.0 
1.00488 -6.61364e-05 0.0 
0.999844 -8.62443e-06 0.0 
1.00009 -0.00154402 0.0 
1.02158 -0.245072 0.0 
0.887253 -0.217242 0.0 
0.257451 -0.0232322 0.0 
0.181728 0.0057671 0.0 
0.193594 0.00476997 0.0 
0.0217689 -0.00220525 0.0 
0.747903 -0.0125106 0.0 
1.0035 0.00257435 0.0 
0.833482 0.11975 0.0 
0.999798 4.48498e-05 0.0 
1.00031 0 0.0 
0 0 0.0 
0.425715 -0.00777477 0.0 
1.00039 0.000811339 0.0 
0.89221 -0.0815346 0.0 
0.0266061 0.00108645 0.0 
0 0 0.0 
0.878572 -0.367482 0.0 
1.00111 0.00230937 0.0 
0.999986 -3.0953e-05 0.0 
0.18921 -0.00484025 0.0 
0.899639 -0.208679 0.0 
0.247883 -0.00581839 0.0 
0.929308 0.0294489 0.0 
0 0 0.0 
0.122497 0.0543747 0.0 
0.0310475 0.00422301 0.0 
0 0 0.0 
0.464468 0.0139094 0.0 
0.99518 -0.302389 0.0 
0.962854 0.274868 0.0 
0.900465 -0.00917142 0.0 
0.0261199 0.00118413 0.0 
1.03392 -0.00170855 0.0 
0.055021 0.00140908 0.0 
1.00137 -0.000573721 0.0 
0.981967 -0.0146748 0.0 
0 0 0.0 
0 0 0.0 
6.02295e-05 -1.4007e-06 0.0 
0.266333 -0.0288284 0.0 
0.314614 -0.00237332 0.0 
0.979988 -0.0462869 0.0 
0.18828 0.00386323 0.0 
1.00664 -0.280812 0.0 
1.002 0 0.0 
0.321007 0.0115181 0.0 
0.201927 -0.0112682 0.0 
0.383479 0.00118704 0.0 
1.00495 -0.00282489 0.0 
0.355089 0.0084954 0.0 
0.805262 -0.41348 0.0 
1.01806 0.00336434 0.0 
0.892747 -0.319088 0.0 
1.00271 0.00225461 0.0 
0.00155915 0.000152759 0.0 
0.312785 -0.112727 0.0 
0.991391 -0.0096007 0.0 
0.824197 -0.021945 0.0 
0.971852 0.15886 0.0 
1.00212 -0.00598254 0.0 
0.966129 -0.189331 0.0 
0.013189 -0.00187432 0.0 
0.996439 -0.00106203 0.0 
0 0 0.0 
0 0 0.0 
0 0 0.0 
0.12588 -0.0182608 0.0 
0.999954 -2.38625e-05 0.0 
1.00004 -0.000227668 0.0 
1.03692 -0.253014 0.0 
0.999982 -0.000595026 0.0 
0.28001 -0.173648 0.0 
0.0878628 0.00650756 0.0 
1.04377 0.212062 0.0 
0.361106 -0.149553 0.0 
0.125632 0.138984 0.0 
0 0 0.0 
0.99985 -3.65629e-06 0.0 
0.999824 -0.000108795 0.0 
0.306263 0.0280949 0.0 
0.740871 -0.0364437 0.0 
1.00656 -0.00588864 0.0 
1.02959 -0.0556582 0.0 
1.07225 0.153458 0.0 
1.00075 0.00175982 0.0 
0.96401 -0.325117 0.0 
1.0283 0.0203338 0.0 
0.999929 0.000698883 0.0 
1.52091e-10 2.56101e-11 0.0 
0.500068 -0.35249 0.0 
0 0 0.0 
0.353148 -0.00588307 0.0 
0.149598 -0.0239922 0.0 
0.537009 0.0132279 0.0 
1.00502 -0.00111722 0.0 
0.999744 3.07527e-05 0.0 
0.0807788 0.00281602 0.0 
0 0 0.0 
0.0118514 0.00116065 0.0 
0.162378 0.00394831 0.0 
0.0290368 -0.00222062 0.0 
0.846462 0.193241 0.0 
0.218939 0.0043019 0.0 
0.99951 0.000498237 0.0 
0.83604 0.0175201 0.0 
1.22547e-136 -8.25021e-138 0.0 
1.00077 0.00261238 0.0 
0.714159 0.0221646 0.0 
0.999553 -0.000259765 0.0 
1.00232 0.00576487 0.0 
0.00238221 -0.000236298 0.0 
0.278296 -0.329283 0.0 
0.0242438 0.000228505 0.0 
0.999836 -1.14448e-06 0.0 
0.177772 -0.0251377 0.0 
1.00231 -0.00144481 0.0 
0.999972 -0.000154805 0.0 
0.322013 0.00796967 0.0 
1.00347 -0.00720734 0.0 
0.993777 0.00669719 0.0 
0.988937 0.000219868 0.0 
1e-307 1e-307 0.0 
0.00154536 -0.000241658 0.0 
0.051308 0.00713996 0.0 
1.03009 0.237413 0.0 
0.999992 3.09709e-05 0.0 
1.00411 -0.000209783 0.0 
0.387014 0.0180579 0.0 
0.274287 -0.0305316 0.0 
0.137705 0.0206229 0.0 
0.285392 -0.0378518 0.0 
1.00462 -0.000109332 0.0 
0.0381809 -0.00644189 0.0 
0.0266554 -0.00451127 0.0 
1.00497 -0.000892757 0.0 
0.997153 0.0239647 0.0 
1.02632 -0.00890841 0.0 
0.707205 -0.0456057 0.0 
0 0 0.0 
0.411849 -0.0370621 0.0 
0.977546 0.0158301 0.0 
0.190381 0.013048 0.0 
0 0 0.0 
0.947714 -0.0343493 0.0 
0.101522 0.00391072 0.0 
0.0431404 -0.00259612 0.0 
1.00001 -0.000164734 0.0 
0.997566 0.0067505 0.0 
1.00549 0.00076783 0.0 
2.98061e-90 -4.99709e-91 0.0 
0.999275 -0.0269889 0.0 
1.00391 0 0.0 
1.00567 -0.00223617 0.0 
0.999868 0.000246452 0.0 
1.01118 -0.00646374 0.0 
1.01605 0.0214714 0.0 
0.0135653 0.000634199 0.0 
1 0 0.0 
1.00057 0.00141767 0.0 
0.253468 -0.175441 0.0 
1.00029 7.07346e-05 0.0 
0.999838 3.11609e-05 0.0 
0.0471239 0.00179799 0.0 
0 0 0.0 
0.408216 0.00589245 0.0 
1.00059 0.000410829 0.0 
1.00938 -0.00817556 0.0 
0.785042 0.342721 0.0 
1.00348 -0.000234671 0.0 
0.999168 -0.000471209 0.0 
0.191806 -0.0248346 0.0 
1.0009 0 0.0 
0.93843 -0.0138536 0.0 
0.0874546 -0.00921701 0.0 
0.999734 0.00301018 0.0 
0.0112315 -0.000459067 0.0 
0.0329242 0.00024606 0.0 
0.811526 -0.0220531 0.0 
0.0809094 0.00255261 0.0 
0 0 0.0 
0.998478 -0.000623892 0.0 
1.00445 9.98494e-05 0.0 
0.992907 0.0608752 0.0 
1.00446 -0.00486148 0.0 
0.0816582 0.0461811 0.0 
1.07164 0.0343727 0.0 
1.0014 0.000882016 0.0 
1.00316 0.00365152 0.0 
0.607431 0.00618967 0.0 
0.999865 0.00441099 0.0 
1.00451 0.000183951 0.0 
0.0166414 0.00147643 0.0 
1.00738 -0.00458318 0.0 
1.00416 -0.00119852 0.0 
0.417793 -0.016768 0.0 
1.0028 -0.000520263 0.0 
0.185432 -0.0217593 0.0 
1.00045 0.00391084 0.0 
1.00257 -0.00852945 0.0 
7.8767e-05 1.02225e-05 0.0 
0.0435194 0.0023416 0.0 
0.999773 -2.08941e-05 0.0 
0.803236 0.319085 0.0 
0.998851 -0.0041676 0.0 
1.0065 -0.0011388 0.0 
0.87959 -0.0953436 0.0 
0.99772 0.0238282 0.0 
0 0 0.0 
1.00649 0.00125324 0.0 
0.254487 -0.0494763 0.0 
1.00122 -0.00384204 0.0 
0.915237 0.149051 0.0 
0.330751 0.00477804 0.0 
0.944921 0.0011829 0.0 
0.999969 -3.47617e-05 0.0 
0.69415 0.00101873 0.0 
1.00011 0.000792824 0.0 
1.00632 0.000853155 0.0 
1.0257 0.0128329 0.0 
1.00016 -0.000134427 0.0 
0.0402206 -0.00180385 0.0 
1.01787 0.0168183 0.0 
1.00156 -0.00140995 0.0 
0.962486 -0.283679 0.0 
0.999649 5.18868e-06 0.0 
0.882805 -0.0375259 0.0 
0.924971 -0.305552 0.0 
0.99738 -0.000713662 0.0 
0.999367 0.000723965 0.0 
1.00605 6.51475e-06 0.0 
0.544071 0.0100283 0.0 
1.00002 -0.000178542 0.0 
0.774518 -0.0284686 0.0 
0.981062 0.00555153 0.0 
0.999542 0.001736 0.0 
0.154313 -0.0293285 0.0 
0.999577 0.00176112 0.0 
1.00648 0.00489312 0.0 
1.00474 0.000108825 0.0 
1.00024 0.000350595 0.0 
0.327727 0.00802055 0.0 
1.09658 0.101983 0.0 
1.00074 -0.000402351 0.0 
1.01014 0.00356278 0.0 
-6.5142e-54 5.06559e-55 0.0 
1.01837 0.00950728 0.0 
1.01631 0.222504 0.0 
1.00003 0.000298101 0.0 
0.642494 0.0147089 0.0 
0.705775 0.0908998 0.0 
1.01377 0.00070435 0.0 
1.00227 0.00434732 0.0 
0.509081 0.0142692 0.0 
0.0181875 -0.000378276 0.0 
0.490971 -0.00143369 0.0 
-2.44383e-276 8.71553e-278 0.0 
0.882774 0.0143713 0.0 
0.0520404 0.00056531 0.0 
1.00183 0.00158796 0.0 
1.00719 -0.00766174 0.0 
1.00888 0.00350582 0.0 
1.00003 0.000301145 0.0 
1.00047 0.00179851 0.0 
0.987418 0.0417468 0.0 
1.00629 0.000260573 0.0 
-9.17649e-245 1.35788e-246 0.0 
1.00025 0.00016408 0.0 
0.210495 -0.019738 0.0 
1.01003 -0.00979049 0.0 
1.00481 -7.37962e-05 0.0 
1.00593 0.00209183 0.0 
0.997025 -0.000692651 0.0 
0.978064 0.0377109 0.0 
0.229256 0.0228182 0.0 
1.12212 0.113254 0.0 
0.388702 -0.0111156 0.0 
1.00055 -0.000514763 0.0 
0.983892 0.0491771 0.0 
1.00548 0.000692566 0.0 
1.00373 -0.00442812 0.0 
1.00894 0.00602292 0.0 
1.00278 0.00101197 0.0 
0 0 0.0 
0.0544228 -0.00267071 0.0 
0 0 0.0 
0.99996 0.000205723 0.0 
0.997927 -0.00266271 0.0 
0.916258 -0.0231285 0.0 
1.00084 0.00016402 0.0 
0.389651 0.0166491 0.0 
0.0374981 0.00122875 0.0 
0.999795 8.42562e-05 0.0 
0.204825 0.0172788 0.0 
1.00505 0.000335694 0.0 
1.0085 -0.00952228 0.0 
0.964115 0.182551 0.0 
0.721794 0.0168141 0.0 
1.0038 0.000231663 0.0 
0 0 0.0 
0.99977 6.87974e-05 0.0 
0.00490012 -0.000751106 0.0 
0.999974 0.00016151 0.0 
1.04688 0.243915 0.0 
0.0448692 0.00181956 0.0 
0 0 0.0 
0.876222 -0.0175424 0.0 
0.864374 0.0307511 0.0 
1.00071 0.000240279 0.0 
0.99932 4.95765e-05 0.0 
0.0310841 -0.0169636 0.0 
0.0276513 -0.00133921 0.0 
0.258071 0.0226762 0.0 
1.00216 0.000750099 0.0 
0.957694 -0.0157207 0.0 
0.999759 0.000131992 0.0 
0.0118996 0.000152827 0.0 
0.999911 0.000210635 0.0 
0.613085 -0.0477121 0.0 
1.00644 0.00255847 0.0 
1.00758 -0.0457821 0.0 
0.875974 -0.076887 0.0 
1.09624 0.0878229 0.0 
0.0439399 -0.00434366 0.0 
1.00479 -0.00225769 0.0 
1.09152 0.100736 0.0 
0.998945 0.00444874 0.0 
1.00016 0.000243513 0.0 
0.0168482 -0.00276389 0.0 
1.00165 -0.000470821 0.0 
1.00188 0.00112968 0.0 
1.00011 -0.000535281 0.0 
0 0 0.0 
1.00414 -0.00245803 0.0 
1.00413 -0.000362543 0.0 
1.00447 -0.00260315 0.0 
-3.42644e-240 -1.86045e-241 0.0 
1.00019 -0.000554595 0.0 
0.999821 2.76887e-05 0.0 
1.07368 0.0538526 0.0 
1.03278 -0.0265323 0.0 
1.12224 0.08216 0.0 
1.00019 0 0.0 
0.959702 -0.000322447 0.0 
1.0074 0.00333678 0.0 
0.0286994 -0.000153646 0.0 
0.159733 0.0622012 0.0 
1 -0.000916657 0.0 
0.171214 -0.0207597 0.0 
0.0149159 -0.00312542 0.0 
1.00127 0.000251165 0.0 
0.698014 -0.00444164 0.0 
0.999254 -0.000358055 0.0 
1.0001 -0.00196177 0.0 
0.957028 0.0285698 0.0 
0.999997 0.00106774 0.0 
1.0054 -0.0031344 0.0 
1.00587 0.000716084 0.0 
1.00005 -0.000430108 0.0 
0.997991 0.207233 0.0 
-8.45506e-160 3.46068e-161 0.0 
0.609164 -0.0509105 0.0 
0.999844 -8.36117e-07 0.0 
1.00303 -0.00648225 0.0 
0.0216959 -0.00223396 0.0 
0.0340376 -0.00482343 0.0 
0.0347527 0.0131112 0.0 
0.185409 0.0595879 0.0 
1.00001 -0.000252468 0.0 
0.9627 -0.0563319 0.0 
0.0160531 -0.00255679 0.0 
0.863688 0.0317926 0.0 
0.0241449 0.000523935 0.0 
1.00659 0.0027426 0.0 
1.00811 -0.00131057 0.0 
0.999867 0.000130027 0.0 
0.211736 -0.00849475 0.0 
0.999958 0.000543425 0.0 
0.335519 -0.00593736 0.0 
0.148845 -0.0191032 0.0 
1.00245 0.00396606 0.0 
0.405878 0.00512511 0.0 
1 0.000227433 0.0 
0.432944 0.00782529 0.0 
0.471735 0.00158039 0.0 
0.999866 0.000155571 0.0 
0.998805 -0.000274161 0.0 
1.00446 0.000322938 0.0 
0.86982 -0.0512236 0.0 
0.999676 -7.47294e-05 0.0 
1.00365 -0.000562383 0.0 
0.99981 4.27813e-05 0.0 
0.999728 -0.000135231 0.0 
0.00307163 -0.000249862 0.0 
1.00056 0.00159751 0.0 
1.00001 2.24424e-05 0.0 
1.0002 0.000222348 0.0 
0.999699 -0.000176833 0.0 
0.393089 0.00549856 0.0 
1.00026 -0.000183403 0.0 
1e-307 1e-307 0.0 
0.231462 -0.0146847 0.0 
0.579446 0.0718614 0.0 
0.900864 0.0191819 0.0 
1.00443 -0.00534951 0.0 
0.99982 -4.65257e-05 0.0 
0.69898 -0.0400975 0.0 
0.895922 0.0144098 0.0 
0.00931601 0.000799404 0.0 
1.00007 -0.000668069 0.0 
0.510781 -0.0411582 0.0 
1.0001 -0.00016783 0.0 
0.927949 -0.163914 0.0 
-1.06854e-200 -5.07912e-201 0.0 
0.817018 0.127061 0.0 
0.453095 -0.307287 0.0 
0.0649801 0.0024477 0.0 
0.0236304 -0.00356842 0.0 
0.421855 0.0022165 0.0 
0.220716 0.00598703 0.0 
0.756543 0.0257436 0.0 
0.435767 -0.000886297 0.0 
1.00695 -0.00179837 0.0 
1.00126 -0.00633622 0.0 
0.357181 0.00842573 0.0 
1.0032 -0.00137433 0.0 
0.999983 0.000471097 0.0 
1.00394 -0.00231428 0.0 
1.00024 9.97953e-05 0.0 
1.00087 0.0168895 0.0 
1.00429 -0.00956812 0.0 
0.999707 0.000133579 0.0 
0.999806 -7.26117e-06 0.0 
1.00393 -0.00281841 0.0 
0.819422 0.0146055 0.0 
1.00171 -0.00901367 0.0 
1.00841 0.00321039 0.0 
0.337311 -0.00135953 0.0 
0.166197 0.00526799 0.0 
0.357873 -0.00193813 0.0 
1.00157 0.000647022 0.0 
0.0222727 0.000541019 0.0 
1.00508 0.00193024 0.0 
0.788576 0.141274 0.0 
0.99948 -0.00028988 0.0 
1.00527 -0.000195325 0.0 
1.00279 0.00152361 0.0 
0.996833 -0.000115588 0.0 
1.00591 0.00251202 0.0 
0.0369539 -0.00729416 0.0 
1.00007 -0.000216328 0.0 
0.349767 0.00105188 0.0 
1.00721 -0.00951337 0.0 
0.00984359 0.000963732 0.0 
0.795916 -0.00120106 0.0 
0.999834 -0.000271333 0.0 
0.99775 0.00434508 0.0 
0.0203324 0.000868114 0.0 
1.00001 -0.000129707 0.0 
1.01361 -0.00762358 0.0 
0.0120913 -0.00191216 0.0 
0.727683 -0.0314259 0.0 
0.913927 -0.0158177 0.0 
1.00316 0.0021117 0.0 
0.28451 -0.0411434 0.0 
1.00145 0 0.0 
1.02784 -0.100533 0.0 
1.00206 -0.0181895 0.0 
0.838996 -0.0522428 0.0 
1 -0.000246756 0.0 
0.323089 -0.234555 0.0 
0.390898 0.0872339 0.0 
0.962102 -0.0444578 0.0 
1.00134 0.0053212 0.0 
1.00282 0.0104943 0.0 
1.1264 0.0860139 0.0 
0.138138 0.00501244 0.0 
0.31713 0.0433211 0.0 
0.776257 -0.0166799 0.0 
0.517933 -0.0377283 0.0 
0.99999 0.00081193 0.0 
0.789405 -0.0135637 0.0 
0 0 0.0 
0.346699 0.010735 0.0 
1.0313 0.0131801 0.0 
0.845081 -0.0235003 0.0 
0.214611 -0.0203424 0.0 
0.214537 0.00571983 0.0 
0.792216 -0.0528565 0.0 
0.0192594 0.000733143 0.0 
1.04064 -0.00233154 0.0 
0.149024 -0.00232732 0.0 
0.886716 -0.0549067 0.0 
0.0152187 -0.0276817 0.0 
1.00085 0.000324512 0.0 
1.00017 0 0.0 
1.0743 0.100771 0.0 
0.883332 0.244813 0.0 
0.0125189 -0.00110588 0.0 
0.915036 -0.372951 0.0 
0.999951 0.000149958 0.0 
0.99971 4.05436e-05 0.0 
0.519887 0.0010742 0.0 
0.94279 -0.0377208 0.0 
0.213631 0.00716514 0.0 
1.00004 0.000461245 0.0 
0.0935932 -0.0048164 0.0 
0.23857 -0.000654072 0.0 
0.242712 0.00444558 0.0 
0.955025 0.0859797 0.0 
1.00003 -0.000166209 0.0 
0.999774 0.00183689 0.0 
0.0144922 0.00185186 0.0 
1.00058 4.55844e-05 0.0 
1.00003 0.000176688 0.0 