<VTKFile type="UnstructuredGrid" version="0.1" byte_order="LittleEndian">
  <UnstructuredGrid>
    <Piece NumberOfPoints="13611" NumberOfCells="27033">
      <Points>
        <DataArray type = "Float64" NumberOfComponents="3" format="ascii">
0 0 0.0 
14 0 0.0 
14 8 0.0 
0 8 0.0 
4.36412 4.03307 0.0 
4.18812 3.97951 0.0 
4.02204 4.01739 0.0 
0.382322 2.91093 0.0 
8.79181 7.69132 0.0 
3.77105 4.26039 0.0 
4.22301 4.24058 0.0 
4.07057 3.9639 0.0 
4.53824 7.43039 0.0 
4.49864 3.99741 0.0 
3.98741 4.04054 0.0 
3.98768 4.02653 0.0 
12.529 6.19703 0.0 
8.40952 2.0809 0.0 
4.18003 4.09149 0.0 
4.14551 3.98606 0.0 
4.00011 4.02449 0.0 
4.47538 4.03375 0.0 
4.67405 4.10923 0.0 
4.1789 4.0308 0.0 
4.80484 4.03022 0.0 
4.61584 4.00791 0.0 
4.10988 3.98398 0.0 
12.1265 0 0.0 
4.73869 4.07041 0.0 
7.97633 2.05223 0.0 
4.00498 4.00961 0.0 
4.57278 4.01593 0.0 
4.13489 4.05432 0.0 
4.06762 3.97376 0.0 
5.18332 3.76317 0.0 
4.26347 4.04218 0.0 
4.27011 4.04217 0.0 
1.03284 2.15008 0.0 
0 3.36284 0.0 
4.93697 3.93496 0.0 
3.99732 3.99732 0.0 
4.01703 7.79668 0.0 
4.51121 4.02141 0.0 
10.1734 4.4195 0.0 
4.0273 4.01367 0.0 
4.09466 4.03941 0.0 
4.43305 4.48136 0.0 
4.62342 4.01415 0.0 
14 3.6095 0.0 
5.17517 4.1161 0.0 
0 5.96411 0.0 
4.2321 4.07437 0.0 
4.53857 3.99891 0.0 
4.12607 4.05951 0.0 
8.09297 4.14443 0.0 
4.2483 4.03635 0.0 
4.0955 3.94899 0.0 
4.03444 4.04627 0.0 
4.00163 4.02959 0.0 
4.02005 3.99731 0.0 
5.23503 8 0.0 
4.30375 3.97965 0.0 
3.63165 3.86564 0.0 
4.10222 3.98419 0.0 
5.35828 4.09214 0.0 
4.68705 4.01621 0.0 
4.32637 4.10272 0.0 
5.45662 5.22808 0.0 
7.7278 7.63087 0.0 
10.4908 7.41058 0.0 
4.06521 4.00005 0.0 
4.01419 3.92205 0.0 
4.04551 4.34816 0.0 
4.21735 3.98425 0.0 
4.04672 4.0202 0.0 
4.94501 3.90266 0.0 
4.55638 3.9994 0.0 
4.54772 3.97659 0.0 
3.96947 4.02134 0.0 
4.10206 3.96084 0.0 
3.98469 3.78203 0.0 
3.96297 3.96024 0.0 
4.21254 3.97074 0.0 
4.15932 4.03394 0.0 
4.3499 4.01704 0.0 
4.11692 3.94964 0.0 
4.20997 0.181458 0.0 
3.95785 3.95439 0.0 
4.09052 3.99336 0.0 
4.02972 4.04518 0.0 
4.14199 4.04127 0.0 
3.97141 4.03046 0.0 
4.65153 4.02457 0.0 
3.97561 4.03322 0.0 
3.97816 4.02179 0.0 
4.04633 4.03304 0.0 
3.96767 4.02507 0.0 
4.53971 3.97638 0.0 
4.05908 4.0108 0.0 
4.47307 3.99735 0.0 
4.54225 3.97864 0.0 
3.6968 5.25673 0.0 
5.36227 4.11438 0.0 
4.54991 3.98013 0.0 
4.5394 3.99844 0.0 
5.25234 4.08081 0.0 
4.73521 7.52615 0.0 
4.05958 4.04239 0.0 
4.35428 4.03499 0.0 
5.2844 3.91484 0.0 
4.35427 4.03767 0.0 
4.51322 3.98638 0.0 
4.06171 3.97809 0.0 
4.51222 4.06034 0.0 
4.11581 4.05249 0.0 
4.8618 5.24933 0.0 
4.32046 1.78584 0.0 
3.9361 4.15845 0.0 
4.18626 3.98867 0.0 
3.90674 3.97638 0.0 
4.46244 4.02131 0.0 
4.51894 4.03106 0.0 
3.95528 4.79872 0.0 
5.5206 4.01047 0.0 
4.60418 3.96374 0.0 
6.37297 2.73989 0.0 
6.50541 6.65271 0.0 
4.0914 3.96216 0.0 
0.762019 5.13086 0.0 
5.20281 3.96498 0.0 
0.199854 7.79205 0.0 
4.47892 3.9955 0.0 
4.65935 4.04515 0.0 
12.6474 3.41509 0.0 
4.05312 3.99197 0.0 
13.7435 8 0.0 
4.11702 4.02719 0.0 
6.67367 0 0.0 
4.00932 4.01975 0.0 
6.82471 4.26136 0.0 
4.20354 4.03712 0.0 
3.99474 4.00051 0.0 
4.2532 4.04441 0.0 
4.94157 3.98326 0.0 
4.37551 4.03925 0.0 
11.5602 3.98867 0.0 
3.96897 4.17238 0.0 
4.10011 3.98622 0.0 
6.22735 7.50315 0.0 
4.27132 3.99061 0.0 
4.63875 4.06434 0.0 
4.29389 4.0432 0.0 
2.92109 4.80681 0.0 
8.95603 7.57132 0.0 
6.40969 2.27914 0.0 
4.22222 4.09636 0.0 
3.98122 4.01031 0.0 
4.1536 3.98719 0.0 
4.5176 3.98492 0.0 
3.90498 4.0501 0.0 
12.0185 5.47289 0.0 
13.4868 6.98366 0.0 
4.37654 4.03135 0.0 
7.30271 3.36476 0.0 
4.54778 4.01674 0.0 
4.08927 3.9549 0.0 
4.79265 3.99229 0.0 
3.89408 4.12152 0.0 
1.60222 4.99327 0.0 
4.68458 4.02212 0.0 
4.09428 3.96323 0.0 
4.17466 3.98718 0.0 
4.5258 4.00789 0.0 
5.29218 4.05788 0.0 
4.18332 3.96996 0.0 
6.26265 7.14539 0.0 
4.26449 3.98943 0.0 
4.72674 4.01395 0.0 
12.0372 1.49526 0.0 
4.19586 4.09386 0.0 
4.5846 4.50046 0.0 
10.4619 3.53679 0.0 
4.1403 4.03691 0.0 
5.11537 3.91723 0.0 
4.00988 3.97037 0.0 
4.70958 7.08222 0.0 
6.38052 3.13775 0.0 
5.9291 5.15993 0.0 
2.61514 0.506135 0.0 
4.50379 4.01172 0.0 
9.4176 1.73395 0.0 
4.20327 3.97947 0.0 
5.24537 4.1668 0.0 
4.88569 3.98105 0.0 
3.59976 3.72252 0.0 
4.46613 4.04132 0.0 
10.4928 5.29986 0.0 
8.35832 2.9685 0.0 
13.4699 7.45697 0.0 
13.8261 5.94601 0.0 
4.01229 3.97705 0.0 
4.06076 3.97364 0.0 
4.47498 4.008 0.0 
4.90839 4.00372 0.0 
4.09808 4.03387 0.0 
5.81061 5.00152 0.0 
4.00577 3.97873 0.0 
13.051 3.9341 0.0 
7.58471 5.24477 0.0 
4.5268 4.01385 0.0 
4.00964 3.98933 0.0 
7.62224 2.88267 0.0 
7.22419 0.703495 0.0 
4.52947 3.99713 0.0 
4.49827 3.99856 0.0 
4.45303 3.99728 0.0 
4.62528 3.9827 0.0 
5.01113 4.1034 0.0 
0.384822 4.35157 0.0 
5.8599 3.0813 0.0 
4.13353 3.98592 0.0 
4.05731 4.02647 0.0 
4.71924 4.00853 0.0 
4.55037 4.00822 0.0 
4.22553 4.07149 0.0 
4.6103 3.91602 0.0 
4.05099 4.00074 0.0 
4.06997 4.08978 0.0 
4.11575 4.03408 0.0 
4.98619 3.93198 0.0 
4.20274 4.07949 0.0 
9.00321 4.86505 0.0 
12.5015 1.14918 0.0 
4.09797 3.95385 0.0 
4.23052 4.09368 0.0 
4.20868 4.08388 0.0 
3.10914 5.59567 0.0 
10.6186 4.07207 0.0 
4.00813 4.01182 0.0 
4.21025 4.03415 0.0 
4.20766 3.97838 0.0 
4.06437 4.05592 0.0 
3.31161 1.01031 0.0 
4.05396 4.05241 0.0 
3.98799 3.95955 0.0 
6.49425 0.938237 0.0 
11.1865 7.25481 0.0 
8.82235 8 0.0 
4.23781 4.09881 0.0 
1.2154 8 0.0 
4.43107 4.03277 0.0 
4.69512 3.9114 0.0 
10.2824 1.17531 0.0 
4.30783 4.05952 0.0 
4.22281 3.98953 0.0 
4.06329 4.04721 0.0 
4.09715 3.98531 0.0 
4.18805 3.96826 0.0 
1.06432 1.49826 0.0 
4.45455 2.45817 0.0 
4.53802 4.03292 0.0 
0.417479 6.31883 0.0 
9.9721 3.6087 0.0 
4.53591 4.02649 0.0 
4.32461 3.99219 0.0 
4.00241 3.93804 0.0 
3.98977 4.04663 0.0 
3.99153 4.04254 0.0 
4.57553 4.01147 0.0 
13.4909 8 0.0 
4.00773 4.00001 0.0 
4.11013 3.98528 0.0 
3.97296 4.00674 0.0 
11.3714 7.19716 0.0 
9.192 5.81999 0.0 
2.13112 6.6549 0.0 
3.53429 0 0.0 
4.67134 3.89044 0.0 
4.08953 4.02996 0.0 
11.016 2.69137 0.0 
2.30378 3.03595 0.0 
4.38105 3.9937 0.0 
9.65837 4.25696 0.0 
7.40997 8 0.0 
4.02321 3.97317 0.0 
2.86414 6.59491 0.0 
13.611 1.35207 0.0 
4.18803 3.98662 0.0 
4.14091 4.04918 0.0 
8.48287 5.04599 0.0 
5.25032 1.89548 0.0 
6.78993 2.13526 0.0 
4.31517 3.99157 0.0 
0.846754 0.565038 0.0 
4.07371 4.03406 0.0 
4.93904 4.11785 0.0 
4.76297 3.98343 0.0 
3.88468 3.53302 0.0 
7.59973 7.22298 0.0 
12.6277 1.80732 0.0 
14 4.58149 0.0 
5.85073 0.410811 0.0 
13.0902 7.46595 0.0 
3.10089 2.25184 0.0 
4.02912 3.96643 0.0 
4.60221 3.95456 0.0 
4.75099 4.81127 0.0 
4.00414 3.99309 0.0 
4.96928 3.97464 0.0 
4.51225 4.03393 0.0 
3.96066 4.00697 0.0 
1.48233 7.50025 0.0 
4.96395 4.01931 0.0 
13.1661 5.68046 0.0 
13.7895 0 0.0 
4.10795 4.02897 0.0 
4.07492 4.03509 0.0 
11.4357 2.10385 0.0 
1.21408 1.2833 0.0 
4.77971 4.48651 0.0 
4.00791 4.0033 0.0 
4.0088 3.9805 0.0 
9.75515 2.36072 0.0 
4.57455 4.08212 0.0 
3.84724 3.99971 0.0 
4.02947 3.97325 0.0 
4.4607 4.02022 0.0 
4.6454 3.91884 0.0 
4.01129 4.00596 0.0 
4.01425 3.98947 0.0 
4.84915 4.03246 0.0 
4.56283 3.99857 0.0 
4.08927 4.04949 0.0 
4.01755 3.97046 0.0 
4.52386 4.04096 0.0 
4.30986 3.99251 0.0 
4.19209 4.05548 0.0 
6.42419 4.18044 0.0 
7.2305 2.80511 0.0 
4.05373 4.0206 0.0 
4.0593 4.0207 0.0 
3.69149 4.54391 0.0 
4.47089 4.06222 0.0 
4.11868 3.97589 0.0 
4.15516 3.94365 0.0 
13.1818 2.98063 0.0 
4.01683 3.96357 0.0 
8.32777 8 0.0 
6.98728 5.60342 0.0 
4.03302 4.01898 0.0 
11.5618 2.86371 0.0 
4.51335 4.0121 0.0 
5.06461 4.08435 0.0 
4.00437 3.9841 0.0 
4.55145 4.028 0.0 
4.0134 3.97877 0.0 
3.03193 6.72582 0.0 
4.21358 4.04577 0.0 
4.01079 3.9893 0.0 
4.0606 4.07842 0.0 
4.36156 4.08272 0.0 
4.45904 4.02042 0.0 
9.91461 3.85358 0.0 
2.49698 3.5985 0.0 
4.20001 4.03326 0.0 
3.9289 4.29295 0.0 
4.21639 4.03358 0.0 
4.27564 3.95854 0.0 
4.62068 4.09144 0.0 
11.5792 7.84461 0.0 
0.551344 1.2516 0.0 
4.02575 3.96118 0.0 
3.58178 4.19849 0.0 
6.49849 5.21743 0.0 
9.69483 7.24214 0.0 
6.52781 1.51786 0.0 
8.91842 0.967714 0.0 
3.9183 4.01934 0.0 
4.5517 4.00358 0.0 
13.1592 5.25121 0.0 
11.8351 6.74811 0.0 
4.03897 3.94409 0.0 
4.1127 3.96242 0.0 
4.84809 6.69312 0.0 
4.15116 3.93854 0.0 
4.13176 4.07898 0.0 
10.2186 2.28825 0.0 
4.19551 3.98815 0.0 
4.34924 4.71256 0.0 
4.85957 4.01386 0.0 
3.73135 5.50506 0.0 
4.00279 3.99128 0.0 
4.05385 4.00986 0.0 
4.01003 3.99134 0.0 
3.23165 3.32206 0.0 
10.6153 7.62373 0.0 
6.32476 7.00417 0.0 
12.5996 5.63737 0.0 
4.64409 4.00438 0.0 
3.93277 3.96019 0.0 
12.9422 5.39238 0.0 
4.21818 3.98901 0.0 
4.38667 4.07986 0.0 
4.70512 4.01377 0.0 
0.348252 3.38746 0.0 
4.33698 3.99318 0.0 
4.90953 3.97583 0.0 
3.45176 4.08828 0.0 
14 1.00091 0.0 
3.96806 4.01296 0.0 
11.0968 5.75296 0.0 
6.64238 0.26606 0.0 
4.36273 4.03664 0.0 
0.161642 7.54001 0.0 
5.21692 3.3143 0.0 
9.70352 1.23095 0.0 
4.5467 4.03146 0.0 
4.63883 4.00936 0.0 
4.13974 3.98724 0.0 
4.53595 4.04072 0.0 
7.20657 5.05296 0.0 
3.05391 4.40989 0.0 
2.46918 6.85642 0.0 
2.66721 0 0.0 
4.21577 3.97354 0.0 
4.53323 4.0151 0.0 
3.81903 4.22335 0.0 
0.198711 3.79297 0.0 
4.72583 0.194576 0.0 
4.22491 3.96395 0.0 
4.19634 4.04728 0.0 
5.30927 0.171783 0.0 
4.21339 4.02989 0.0 
3.77134 4.0081 0.0 
14 3.84943 0.0 
4.73668 3.89169 0.0 
4.04877 3.98924 0.0 
3.96886 4.00175 0.0 
4.64006 3.99672 0.0 
12.1589 3.04171 0.0 
6.98692 2.68678 0.0 
4.4883 4.04174 0.0 
2.40712 0.227112 0.0 
4.82507 4.1106 0.0 
4.31703 3.9934 0.0 
4.30033 6.55304 0.0 
0.347962 1.57688 0.0 
10.0323 4.54406 0.0 
4.03692 4.02379 0.0 
13.6945 7.80328 0.0 
7.78364 0 0.0 
6.32437 6.34013 0.0 
3.84329 4.3064 0.0 
5.62592 4.80931 0.0 
4.7383 3.87602 0.0 
0.195775 6.68765 0.0 
5.0604 3.97687 0.0 
1.64832 6.43608 0.0 
13.7604 0.5867 0.0 
4.09065 3.95069 0.0 
11.2266 4.89283 0.0 
4.48677 3.99573 0.0 
4.25841 3.96952 0.0 
4.03014 4.02376 0.0 
6.20333 4.3105 0.0 
4.0104 4.03331 0.0 
4.2904 3.92587 0.0 
4.615 3.93962 0.0 
4.15098 4.79282 0.0 
4.42883 3.99548 0.0 
3.76694 3.80105 0.0 
4.1283 4.05439 0.0 
4.14775 4.04205 0.0 
11.8702 0.212102 0.0 
3.8467 3.90466 0.0 
[...]
<PointData>
  <DataArray type = "Float64" Name="Vitesse" NumberOfComponents="3" format="ascii">
1 0 0.0 
1.00176 0 0.0 
0.999996 0 0.0 
1 0 0.0 
3.08699e-05 -3.8439e-06 0.0 
0.196276 0.00384795 0.0 
-4.94297e-290 -1.97673e-290 0.0 
0.999969 -0.000135336 0.0 
1.00467 -0.000232807 0.0 
0.976927 0.0356783 0.0 
1.07259 0.0539794 0.0 
0.874317 -0.0943273 0.0 
1.00521 0.000707172 0.0 
0.0168802 0.000962743 0.0 
0.774482 0.197523 0.0 
0.682715 0.18924 0.0 
1.00023 -0.00152009 0.0 
1.00627 0.000693279 0.0 
1.09698 0.10236 0.0 
0.0261108 0.00214893 0.0 
0.660376 0.311004 0.0 
0.13339 -0.0159226 0.0 
0.95947 -0.0453696 0.0 
0 0 0.0 
0.371803 -0.0172976 0.0 
0.117968 -0.00181287 0.0 
0.061653 0.000416397 0.0 
1.00328 0 0.0 
0.692978 -0.0396033 0.0 
1.00644 0.000590712 0.0 
0.0696116 0.0583989 0.0 
0.0736263 -0.0239774 0.0 
0.539246 0.0596034 0.0 
0.543466 -0.0432762 0.0 
1.0098 0.00667086 0.0 
-4.70456e-47 3.44528e-48 0.0 
0.0130886 -0.000744108 0.0 
0.999982 -0.000614304 0.0 
1 0 0.0 
0.804375 0.0187082 0.0 
0.278305 -0.329767 0.0 
1.00428 0.000312489 0.0 
0.0586082 -0.00859571 0.0 
1.00707 -0.00565557 0.0 
0 0 0.0 
0.137124 0.0206103 0.0 
1.03838 0.00968057 0.0 
0.132269 -0.00992949 0.0 
0.99855 0.00270411 0.0 
0.943325 -0.0161123 0.0 
1 0 0.0 
0.803877 0.0260602 0.0 
0.00627972 -0.000517619 0.0 
0.762553 0.104613 0.0 
0.940683 -0.00331103 0.0 
0 0 0.0 
1.03213 -0.0971244 0.0 
0.925252 0.316096 0.0 
0.720438 0.30938 0.0 
0 0 0.0 
1.00562 0 0.0 
0.2217 0.00599189 0.0 
0.971951 -0.0110463 0.0 
0.0540121 -5.81409e-05 0.0 
0.857541 -0.0129775 0.0 
0.210762 -0.00844001 0.0 
1.0472 0.00401288 0.0 
1.01119 -0.00163773 0.0 
1.00537 -0.000203857 0.0 
1.00302 -0.000683146 0.0 
0 0 0.0 
0.996112 -0.162354 0.0 
1.01872 0.0564092 0.0 
0.105066 0.0041549 0.0 
0 0 0.0 
0.948412 0.0166364 0.0 
5.24634e-09 -6.90214e-11 0.0 
0.34778 0.0151675 0.0 
0.725713 0.0674278 0.0 
0.816681 -0.0533789 0.0 
0.996405 -0.0643662 0.0 
0.85979 -0.137321 0.0 
0.391711 0.00491248 0.0 
0 0 0.0 
0 0 0.0 
0.981093 -0.0679057 0.0 
1.00372 -0.000255289 0.0 
0.87441 -0.124767 0.0 
0 0 0.0 
0.913209 0.323781 0.0 
4.68941e-10 4.08576e-11 0.0 
0.750576 0.107083 0.0 
0.208805 -0.0195252 0.0 
0.751189 0.131407 0.0 
0.686592 0.104879 0.0 
0.433365 0.133393 0.0 
0.744191 0.0769326 0.0 
0.34633 0.0126605 0.0 
0 0 0.0 
0.0108639 0.000960116 0.0 
0.315598 0.012124 0.0 
1.00552 0.00994709 0.0 
0.931279 -0.0122689 0.0 
0.299063 0.0141801 0.0 
0.0128183 -0.000741236 0.0 
0.807759 -0.0157657 0.0 
1.00537 0.000509188 0.0 
0.691212 0.181381 0.0 
0.00973407 -0.00089222 0.0 
0.886588 0.00932053 0.0 
0.0449788 -0.00482099 0.0 
0.187629 0.0047053 0.0 
0.381236 -0.0275099 0.0 
0.505936 -0.0405867 0.0 
0.583597 0.0844207 0.0 
1.01371 0.00171834 0.0 
1.00516 -0.00304841 0.0 
0.954875 0.0860204 0.0 
3.43593e-05 3.59925e-06 0.0 
0.882467 -0.0377242 0.0 
0.0124371 -0.0016509 0.0 
0.146988 -0.0183757 0.0 
1.01043 0.0196433 0.0 
0.584298 -0.00190178 0.0 
0.524515 0.0345791 0.0 
1.00782 0.000390529 0.0 
1.00665 -0.000465772 0.0 
0.823786 -0.0632676 0.0 
0.999926 0.000701748 0.0 
0.637591 0.00941219 0.0 
1.00001 2.17157e-05 0.0 
0.038721 0.00015646 0.0 
0.396453 -0.0358699 0.0 
1.00414 0.00545196 0.0 
0 0 0.0 
1.0001 0 0.0 
0 0 0.0 
1.0056 0 0.0 
0.529387 0.307962 0.0 
1.00712 -0.00255679 0.0 
0 0 0.0 
0.279705 -0.174381 0.0 
0.0428856 -0.0022305 0.0 
0.469918 0.0104511 0.0 
0.0927027 -0.00902392 0.0 
0.959544 -0.00382969 0.0 
0.970991 0.0982252 0.0 
1.93288e-06 -1.19203e-07 0.0 
1.00601 -5.43806e-05 0.0 
0.0154879 9.75779e-07 0.0 
0.603604 -0.04722 0.0 
0.0606629 -0.00303096 0.0 
0.997455 0.00677105 0.0 
1.00456 -0.000337881 0.0 
1.00733 2.77316e-05 0.0 
1.08837 0.0643174 0.0 
0.60509 0.0331529 0.0 
5.23159e-05 -1.76503e-07 0.0 
0.211145 0.00551989 0.0 
0.884176 0.0401647 0.0 
1.00004 -0.00289439 0.0 
1.00005 -0.000509208 0.0 
5.31434e-05 -3.61761e-06 0.0 
1.00754 0.000941281 0.0 
0.060497 -0.0120373 0.0 
0.979543 -0.0926417 0.0 
0.343057 0.010507 0.0 
0.931984 0.0635844 0.0 
0.999563 0.00177066 0.0 
0.229517 -0.0145056 0.0 
0.783089 -0.0545602 0.0 
0.0219467 0.000711385 0.0 
5.35486e-06 -8.49532e-07 0.0 
0.691877 -0.0128211 0.0 
0.422486 0.00222912 0.0 
1.00624 -0.000140136 0.0 
0.0330908 0.000584213 0.0 
0.245071 -0.00590818 0.0 
1.00347 0.00133937 0.0 
1.09653 0.0879339 0.0 
1.03319 -0.00077791 0.0 
1.00683 0.00294089 0.0 
0 0 0.0 
0.886884 0.0120246 0.0 
0.963918 -0.325126 0.0 
1.00578 0.00102345 0.0 
1.00841 0.000505941 0.0 
1.00945 -0.00237043 0.0 
1.00143 -0.000608387 0.0 
-7.56137e-47 7.11509e-48 0.0 
1.00552 0.000799065 0.0 
0.199655 0.00471373 0.0 
1.0034 -0.0128603 0.0 
0.460323 0.0136993 0.0 
0.981809 -0.0149504 0.0 
0.212407 -0.0220323 0.0 
1.00347 -0.00417533 0.0 
1.00697 0.0011379 0.0 
1.00017 -0.000279778 0.0 
0.999481 -0.000667139 0.0 
0.930875 -0.339004 0.0 
0.591886 -0.0566329 0.0 
0 0 0.0 
0.379589 0.00107046 0.0 
0 0 0.0 
1.00997 -0.00297886 0.0 
0.895937 -0.385204 0.0 
0.990501 0.00380572 0.0 
1.00721 -0.00183733 0.0 
0.0257186 -0.00441316 0.0 
0.36097 -0.149538 0.0 
1.00713 0.000845453 0.0 
1.00578 5.3822e-05 0.0 
0.030276 0.00160157 0.0 
7.5701e-06 4.97347e-07 0.0 
0.000139356 1.03978e-05 0.0 
0.298431 0.0273045 0.0 
0.910484 -0.0220739 0.0 
0.99996 0.000203753 0.0 
1.00889 0.000616702 0.0 
0.0179332 0.00205718 0.0 
0 0 0.0 
0.234769 -0.000728999 0.0 
0.0196816 -0.00477471 0.0 
0.753212 0.0256493 0.0 
0.950526 0.0268118 0.0 
0 0 0.0 
1.04501 0.211537 0.0 
0 0 0.0 
0.822306 0.0170667 0.0 
0.951643 0.0616479 0.0 
1.00656 -0.00307795 0.0 
1.00298 0.00103356 0.0 
0.969573 -0.0818318 0.0 
1.06491 0.0553226 0.0 
1.00118 0.062802 0.0 
1.00229 0.00586311 0.0 
0.926718 -0.00680987 0.0 
0.0804675 0.0456594 0.0 
0 0 0.0 
0.224364 0.00500974 0.0 
0.977452 0.252445 0.0 
1.00243 -0.00156068 0.0 
0.961941 0.27336 0.0 
0.887218 -0.218211 0.0 
1.00591 -0.000153008 0.0 
1.00216 -0.000863017 0.0 
1.00459 0 0.0 
1.08779 0.0541209 0.0 
1.00041 0 0.0 
0.0774167 -0.00968358 0.0 
0.950223 0.0281678 0.0 
1.00481 0.000715942 0.0 
0.406699 -0.0154126 0.0 
0.0110585 0.00137239 0.0 
0.816501 0.211246 0.0 
0.0185527 0.00162906 0.0 
0.460329 0.00141579 0.0 
1.00012 -0.000552093 0.0 
1.00752 -0.00491999 0.0 
0.182756 -0.0236393 0.0 
1.00003 0.000334396 0.0 
1.00775 0.0029941 0.0 
0.120773 -0.0172408 0.0 
0.0210291 0.00157785 0.0 
0.965877 -0.189412 0.0 
0.804747 0.205417 0.0 
0.787326 0.217383 0.0 
0.0578157 -0.018229 0.0 
1.00022 0 0.0 
0 0 0.0 
0.0212882 0.000289933 0.0 
0.675358 -0.0142261 0.0 
1.00193 -0.000914452 0.0 
1.00538 -0.00212909 0.0 
1.00115 0.0017131 0.0 
1.00271 0 0.0 
1.01011 0.0239426 0.0 
0 0 0.0 
1.00486 0.0020131 0.0 
0.998493 -0.0020826 0.0 
0.0247372 0.000129213 0.0 
0.99496 -0.00508154 0.0 
1.00545 0 0.0 
0.950647 -0.258902 0.0 
1.00239 0.00249865 0.0 
1.00189 0.00111215 0.0 
0.0408084 0.00150785 0.0 
0.305219 0.0280312 0.0 
1.00698 -0.00235762 0.0 
1.00689 -0.00158434 0.0 
1.00699 0.000201503 0.0 
0.0255957 0.00111386 0.0 
1.00013 -0.000181226 0.0 
0.0587269 0.0162875 0.0 
0.959664 -0.0248242 0.0 
0.38194 0.0176315 0.0 
0.999267 -0.0272808 0.0 
1.00557 -0.000426846 0.0 
1.00286 0.00174021 0.0 
0.998488 -0.000312198 0.0 
1.00542 -0.000214675 0.0 
1.00039 -0.000339866 0.0 
1.00125 -0.0040395 0.0 
1.02129 -0.244669 0.0 
0.635064 0.0341201 0.0 
1.02105 0.00083846 0.0 
0.253439 -0.175523 0.0 
0.530974 0.0130284 0.0 
0.169813 -0.020152 0.0 
0.747449 -0.0127707 0.0 
1.00059 0.000418278 0.0 
0.420915 -0.00715556 0.0 
0.999442 -0.00124101 0.0 
1.00191 0 0.0 
0 0 0.0 
0.104778 0.0288554 0.0 
1.0042 0.0017608 0.0 
1.0002 -0.000572812 0.0 
1.02578 -0.00788899 0.0 
0 0 0.0 
0.878505 -0.367514 0.0 
1.00558 0.00135361 0.0 
0.788733 -0.0522304 0.0 
0.918388 -0.00447748 0.0 
0.899593 -0.20817 0.0 
0.0038029 -0.000182197 0.0 
0.927693 0.0291178 0.0 
0 0 0.0 
0.154259 -0.0292861 0.0 
0.412903 -0.0165783 0.0 
0.0343369 0.0129818 0.0 
0.67107 0.132131 0.0 
0.995079 -0.302253 0.0 
0.259061 -0.0280163 0.0 
0.00743372 0.000876578 0.0 
0.378429 0.0157743 0.0 
0.992133 -0.0039621 0.0 
1.00727 0.000685703 0.0 
0 0 0.0 
0 0 0.0 
0.996999 0.0236052 0.0 
0.512193 -0.0372427 0.0 
0.313521 -0.00190153 0.0 
0.979368 -0.0465735 0.0 
1.00172 0.00343807 0.0 
1.00646 -0.280716 0.0 
1.00493 0 0.0 
1.00748 -0.00151488 0.0 
0 0 0.0 
1.00431 0.00259798 0.0 
0.0070463 -0.00112951 0.0 
0.820592 -0.0214708 0.0 
0.805197 -0.413589 0.0 
0.147928 -0.0237122 0.0 
0.892682 -0.319037 0.0 
1.00275 0.00232935 0.0 
0.0511254 -0.00122026 0.0 
0.312644 -0.112717 0.0 
1.03176 0.235708 0.0 
0.82209 -0.021653 0.0 
0.00357394 -0.000295493 0.0 
0.941793 0.00448459 0.0 
0.996429 -0.00110508 0.0 
0 0 0.0 
0.992711 0.0587414 0.0 
0 0 0.0 
0.610333 0.00341874 0.0 
0.866747 -0.050523 0.0 
1.00175 -0.000167622 0.0 
1.00004 -0.000233902 0.0 
1.0366 -0.252784 0.0 
0.977571 0.0158318 0.0 
1.00821 -0.00204731 0.0 
1.00393 -0.000769122 0.0 
1.00641 -0.000131555 0.0 
1.00544 0.0003199 0.0 
0.856124 0.011643 0.0 
0.00293463 -0.000695772 0.0 
0.998811 -0.00134538 0.0 
1.00129 -0.00134053 0.0 
1.05339 -0.190837 0.0 
0.740368 -0.0367757 0.0 
1.00663 0.00129519 0.0 
1.02907 -0.0559622 0.0 
1.07136 0.153675 0.0 
1.00521 0.00146604 0.0 
0.0134203 0.00197742 0.0 
1.02503 0.0134147 0.0 
0.348359 -0.00496985 0.0 
1.00595 0.00770592 0.0 
0.499999 -0.352589 0.0 
0 0 0.0 
0.0732899 -0.0289857 0.0 
0.995353 -0.00738042 0.0 
1.00286 -0.000433342 0.0 
1.00637 -0.000212707 0.0 
0.999655 -0.0019017 0.0 
0.162414 0.0041267 0.0 
0.875655 -0.0770992 0.0 
0.999049 -0.001611 0.0 
0.0137833 0.000879978 0.0 
0.771601 -0.0282257 0.0 
0.223866 -0.00573339 0.0 
0.999969 -3.88309e-05 0.0 
0.0103951 0.00086612 0.0 
0.503835 0.0140079 0.0 
0.980842 0.00551376 0.0 
1.00165 0.000735962 0.0 
0.713649 0.0218978 0.0 
1.0021 -0.0031468 0.0 
1.00564 -3.58007e-05 0.0 
0.0423436 -0.00385367 0.0 
1 3.80279e-05 0.0 
1.01198 0.0013381 0.0 
1.00517 0.000606658 0.0 
0.175941 -0.0248406 0.0 
0.14825 -0.0022012 0.0 
0.00018124 2.55975e-05 0.0 
0.266141 -0.0297868 0.0 
1.00752 -0.00202247 0.0 
0.993611 0.00668532 0.0 
1.0017 0.0017058 0.0 
1.00152 0 0.0 
0.329735 0.0056695 0.0 
0.0376984 -0.00634318 0.0 
0.970494 0.0433621 0.0 
0.999992 2.91773e-05 0.0 
1.0044 -0.000233382 0.0 
0.532545 0.00265524 0.0 
0.104996 0.00177195 0.0 
1.005 -0.000147267 0.0 
-2.93331e-251 4.46898e-253 0.0 
0.944606 0.00103327 0.0 
0.997685 0.00226209 0.0 
0.996182 0.0233444 0.0 
0 0 0.0 
0.706766 -0.0459155 0.0 
0.190674 0.0129967 0.0 
1.00369 0.003615 0.0 
1.00739 0.000542363 0.0 
0.237047 -0.0246925 0.0 
1.00121 -0.000244531 0.0 
0.945006 -0.0336027 0.0 
0.000296739 1.10787e-05 0.0 
1.00607 0.00235246 0.0 
1.00001 -0.000169097 0.0 
1.00672 -0.00602524 0.0 
1e-307 0 0.0 
1.0001 -8.47853e-05 0.0 
1.00554 0 0.0 
1.00717 -0.000584643 0.0 
0.984961 0.0443704 0.0 
1.01101 -0.00402832 0.0 
1.0153 0.0208171 0.0 
1 0.000128613 0.0 
0.54406 0.0100242 0.0 
1.00057 0.00144035 0.0 
1.0019 0.00045328 0.0 
1.02714 -0.101092 0.0 
1.00036 -0.00579479 0.0 
0.0375356 0.000874511 0.0 
0.407207 0.00585959 0.0 
0.182419 0.0616902 0.0 
1.00747 -0.00409812 0.0 
0.785023 0.342737 0.0 
0.994609 -0.0164835 0.0 
0.788043 0.0329521 0.0 
1.01708 0.0173195 0.0 
0.0189327 0.000738967 0.0 
0.970526 -0.0278075 0.0 
0.578435 0.0713617 0.0 
5.02384e-08 3.05592e-09 0.0 
1.00352 0.000176842 0.0 
0.942464 -0.0379267 0.0 
1.00359 0.000546568 0.0 
0.135919 0.00455556 0.0 
0 0 0.0 
0.863893 0.110311 0.0 
1.00564 4.99798e-06 0.0 
1.00011 0.00252309 0.0 
0.84469 -0.0237052 0.0 
1.00449 -0.00564349 0.0 
0.0783822 0.0812033 0.0 
1.01898 0.220644 0.0 
1.00653 0.00106644 0.0 
1.00662 0.00201626 0.0 
2.80407e-06 -3.14508e-08 0.0 
1.00566 4.04436e-06 0.0 
1.00651 -0.000775607 0.0 
1.00442 0.000271388 0.0 
1.00442 -0.00130164 0.0 
0.211217 0.00789131 0.0 
0.153686 -0.0396283 0.0 
0.0646785 -0.00212153 0.0 
1.00616 0.00190376 0.0 
1.00644 0.000833857 0.0 
1.00006 -0.000442907 0.0 
1.00833 0.00101548 0.0 
1.00715 -0.00139957 0.0 
0.803078 0.319098 0.0 
0.00774552 -0.00147001 0.0 
1.00736 0.000868636 0.0 
0.990506 -0.00343316 0.0 
0.00246681 -0.000554323 0.0 
0.227886 0.0227968 0.0 
1.00609 0.00233751 0.0 
0.254535 -0.0494215 0.0 
1.00819 0.00494514 0.0 
0.903684 -0.00414551 0.0 
1.0013 0.00539791 0.0 
-1.32458e-208 -3.22021e-209 0.0 
1.00334 0.00352674 0.0 
0.692629 0.000930912 0.0 
1.00011 0.000801083 0.0 
0.784249 -0.0112255 0.0 
0.0186818 0.000120704 0.0 
1.06873 -0.135638 0.0 
0.993586 -0.00480707 0.0 
0.998572 -0.00238742 0.0 
1.00519 -0.000793167 0.0 
0.962338 -0.283712 0.0 
0.0148544 0.000369759 0.0 
0.92487 -0.305632 0.0 
0.997317 -0.000787393 0.0 
0.999358 0.00071934 0.0 
1.00658 0.000588041 0.0 
0 0 0.0 
1.00002 -0.000183288 0.0 
1.00737 -0.00182744 0.0 
1.00078 0.00125484 0.0 
1.0049 0.00228128 0.0 
1.00026 -0.000310133 0.0 
1.00092 0.205889 0.0 
0.0991804 0.00249968 0.0 
1.0022 0.000775722 0.0 
1.00024 0.000356057 0.0 
0.644046 -0.000573083 0.0 
0.999787 -0.000738077 0.0 
1.00408 -0.000507748 0.0 
1.01013 0.00414144 0.0 
1.00912 -0.00350684 0.0 
1.0182 0.0100278 0.0 
0.153777 0.00853746 0.0 
0.636349 0.014601 0.0 
0.993444 -0.00234469 0.0 
0.705192 0.0906864 0.0 
1.12195 0.0819603 0.0 
1.00144 0.00298773 0.0 
0.998713 -0.00187596 0.0 
0.453029 -0.307368 0.0 
0.919925 -0.0251462 0.0 
1.0082 -0.00582607 0.0 
0.0787643 -0.00154649 0.0 
1.00536 0.000798603 0.0 
1.00889 0.00205935 0.0 
1.00045 -0.00130686 0.0 
1.00003 0.000303885 0.0 
1.00523 0.00164511 0.0 
1.00695 -0.000529387 0.0 
0.71117 -0.00557866 0.0 
-8.59652e-44 -3.67289e-45 0.0 
1.00816 -0.00717599 0.0 
1.0053 -0.000153254 0.0 
9.20828e-06 9.86269e-08 0.0 
0.892468 -0.0517709 0.0 
0.13065 -0.0174998 0.0 
1.03064 -0.0259051 0.0 
1.00166 0.000228474 0.0 
0.384507 -0.0108539 0.0 
0.0152703 -0.00263367 0.0 
0.999498 -5.56714e-05 0.0 
3.77668e-06 1.67836e-07 0.0 
1.03036 0.0128494 0.0 
0.0660242 0.00154112 0.0 
1.00038 0.00556278 0.0 
0 0 0.0 
0.00109774 -3.39796e-05 0.0 
1.56303e-06 8.2156e-08 0.0 
6.03758e-83 -1.63541e-83 0.0 
0.283315 0.170247 0.0 
0.332224 -0.00587676 0.0 
1.00379 0.000311761 0.0 
0.214289 0.0683358 0.0 
0.0257496 0.000297808 0.0 
1.00071 -0.000401572 0.0 
0.203773 0.0173846 0.0 
0.995293 -0.00162919 0.0 
0.961827 -0.0446974 0.0 
1.00555 0.00181517 0.0 
0.997994 -0.000589477 0.0 
1.00393 0.000249523 0.0 
1.07169 0.0776602 0.0 
0.285276 -0.0410767 0.0 
1.72604e-06 3.01494e-07 0.0 
0.00729731 0.000504946 0.0 
0.815594 -0.0266043 0.0 
1.00531 0.00112236 0.0 
0.256171 0.0226205 0.0 
0.869022 -0.0164398 0.0 
0.862441 0.0304864 0.0 
1.00707 0.000767702 0.0 
0.962404 -0.0565576 0.0 
0.0307497 -0.0168366 0.0 
1.00703 0.00090875 0.0 
0.999977 7.20448e-06 0.0 
0.0488196 -0.00306199 0.0 
1.10487e-81 1.5123e-82 0.0 
1.0131 -0.00566564 0.0 
0.0203879 -0.00295302 0.0 
0.994798 0.00361306 0.0 
1 0.000231855 0.0 
1.00742 0.000663891 0.0 
1.00596 -0.0450277 0.0 
1.00684 0.00242821 0.0 
1.00388 0.000740162 0.0 
0.0147559 0.000952562 0.0 
1.00502 -0.00244412 0.0 
0.0824654 0.00588957 0.0 
0.998898 0.00447456 0.0 
1.00179 0.00198494 0.0 
0.300086 0.144507 0.0 
1.00173 -0.00050262 0.0 
-1.06394e-45 1.99747e-47 0.0 
0.755417 0.0118496 0.0 
1.0027 0 0.0 
1.00578 -9.53483e-05 0.0 
1.00467 -0.00280326 0.0 
0.00011799 8.75179e-06 0.0 
1.00021 -0.000711545 0.0 
0.999537 -0.000874949 0.0 
1.00636 0.000938541 0.0 
0.0136155 -0.00225959 0.0 
1.00608 -0.00122042 0.0 
0.000536347 1.85477e-05 0.0 
0.246319 -0.0108433 0.0 
0.812955 0.014098 0.0 
0.0146278 -0.00220839 0.0 
0.999703 0.00504989 0.0 
1 -0.000949132 0.0 
0.0108815 0.000776469 0.0 
1.00837 0.00146489 0.0 
-2.42405e-46 -5.11354e-47 0.0 
0.0053861 -0.000913006 0.0 
1.00299 -0.00415659 0.0 
1.00533 -0.0018442 0.0 
0.9556 0.028173 0.0 
1.00487 0.00206709 0.0 
1.00733 -0.000952612 0.0 
1.00619 0.00107505 0.0 
0.723427 -0.0308812 0.0 
0.315784 0.0443557 0.0 
0.0113012 0.00118273 0.0 
0.771331 0.0207066 0.0 
0.696001 -0.00535325 0.0 
0.834705 0.117632 0.0 
0.233513 -0.0270131 0.0 
0.64478 -0.0271363 0.0 
0 0 0.0 
1.00001 -0.00025951 0.0 
1.1255 0.085286 0.0 
0.882666 0.241828 0.0 
0.861617 0.0313481 0.0 
0.994906 0.00507705 0.0 
1.00759 0.000713015 0.0 
1.00873 7.6407e-05 0.0 
0.948762 -0.0100224 0.0 
1.0087 -0.00160011 0.0 
1.00079 0 0.0 
1.10658 0.0973559 0.0 
0.0163255 0.000398126 0.0 
1.0065 0.00118409 0.0 
0.402234 0.0049998 0.0 
1.00807 0.00548844 0.0 
0.431878 0.00762207 0.0 
0 0 0.0 
0.996087 -0.000505926 0.0 
1.00418 -0.00520496 0.0 
1.00569 2.50625e-05 0.0 
1.00074 -0.00254416 0.0 
1.00567 -0.000179581 0.0 
0.999446 -0.00108435 0.0 
1.00121 -0.00213214 0.0 
0.181805 0.000379012 0.0 
1.00508 0.00157523 0.0 
0 0 0.0 
1.00185 0.00166554 0.0 
1.00147 -0.00234517 0.0 
0.38883 0.00545445 0.0 
1.00316 -0.000478154 0.0 
0.0895469 0.00132397 0.0 
1.04016 -0.00264965 0.0 
0.011486 -0.00218158 0.0 
1.00471 0.00206688 0.0 
1.0007 -0.00106784 0.0 
0.978086 0.00235724 0.0 
0.893496 0.0140371 0.0 
1.05853 0.225749 0.0 
1.00008 -0.000689854 0.0 
0.999795 -0.000808823 0.0 
1.00267 -0.000637411 0.0 
0.927629 -0.164076 0.0 
0.03212 -0.00365874 0.0 
0.816508 0.126914 0.0 
-4.95399e-208 -5.43516e-209 0.0 
0.274191 0.00419835 0.0 
0.408012 0.0267789 0.0 
0.417637 0.00195035 0.0 
0.123225 0.0310503 0.0 
1.00604 -0.000410079 0.0 
0.434418 -0.00111473 0.0 
1.00792 -0.000275129 0.0 
1.00128 -0.00661779 0.0 
1.00465 -0.0023875 0.0 
1.00574 -0.000487691 0.0 
1.00416 -0.000992314 0.0 
1.00412 -0.00249897 0.0 
0.0528915 0.00193154 0.0 
1.00087 0.0168672 0.0 
0.178136 -0.0197783 0.0 
0.999121 0.000425639 0.0 
1.00012 -0.00111479 0.0 
1.00658 -0.000913416 0.0 
1 0 0.0 
1.01116 -0.00103707 0.0 
0.018476 0.000372644 0.0 
0.334033 -0.00159037 0.0 
0.354112 -0.00177597 0.0 
1.00481 0.000487718 0.0 
0.036488 -0.00716365 0.0 
1.00667 0.000413779 0.0 
0.788038 0.14114 0.0 
1.0024 -0.00347719 0.0 
1.00582 -0.000559831 0.0 
1.00563 0.000481631 0.0 
1.00104 -0.00132357 0.0 
1.00723 0.000570118 0.0 
1.00007 -0.000222416 0.0 
0.346746 0.000996206 0.0 
1.00553 -0.00306044 0.0 
1.00929 -0.00172273 0.0 
0.794438 -0.00131525 0.0 
0.999832 -0.000284159 0.0 
0.997675 0.0043454 0.0 
0.992955 -0.00436742 0.0 
1.00001 -0.000133067 0.0 
1.00418 0.00244197 0.0 
0.730332 -0.0166786 0.0 
0.167689 0.051036 0.0 
0.913606 -0.0159905 0.0 
1.00321 0.00219575 0.0 
0.00384612 -0.000803488 0.0 
1.0031 0.0104321 0.0 
0.906212 -0.0266701 0.0 
1.00594 -0.000280085 0.0 
0.835824 -0.0515687 0.0 
1 -0.000253838 0.0 
0.323041 -0.234651 0.0 
0.390132 0.0864825 0.0 
-6.31194e-46 4.00843e-47 0.0 
0.0610002 -0.013177 0.0 
1.00244 0.00981708 0.0 
0 0 0.0 
1.00752 0.00156661 0.0 
0.941742 0.267949 0.0 
0.706025 0.0132286 0.0 
1.00513 0.000469226 0.0 
0.0313213 -0.00482469 0.0 
0 0 0.0 
0.96106 -0.00432145 0.0 
0.9975 0.0123316 0.0 
0.236199 0.00419107 0.0 
1.04072 0.0238373 0.0 
1.05574 0.0985041 0.0 
0.883534 0.025231 0.0 
0.406312 -0.0979196 0.0 
1.00493 0.000850277 0.0 
0.886153 -0.0552989 0.0 
0.0151848 -0.0280068 0.0 
1.00392 0.000571911 0.0 
0.562196 -0.03572 0.0 
0.0230531 0.000578916 0.0 
1.00209 -0.000433909 0.0 
1.00584 -0.000652864 0.0 
0.914973 -0.373029 0.0 
1.01244 0.0261316 0.0 
0.999626 -0.00227201 0.0 
0.109413 -0.0155314 0.0 
0.580683 -0.0485682 0.0 
0.000250924 2.40486e-05 0.0 
1.00317 0.00325509 0.0 
0.0500016 0.00312761 0.0 
-5.01114e-209 -3.68447e-210 0.0 
-1.4597e-46 -1.49318e-47 0.0 
0.886911 -0.0210921 0.0 
1.00243 -0.000752417 0.0 
0.999763 0.00185077 0.0 
0.501941 -0.0128272 0.0 
1.00314 0.0001348 0.0 
0.266481 -0.0109617 0.0 
1.00544 0 0.0 
0.883933 -0.0206629 0.0 
-5.95307e-73 1.82889e-73 0.0 
0.997605 0.00165943 0.0 
1.00215 0.00232748 0.0 
0 0 0.0 
0.00318811 -0.000613653 0.0 
1.11686 0.0439573 0.0 
0.404009 0.0315463 0.0 
5.00521e-07 -5.2118e-08 0.0 
0.999008 -0.00226373 0.0 
0.980439 0.00416567 0.0 
1.00653 -0.00159944 0.0 
0.0469935 -0.00260745 0.0 
1.00643 -0.00100001 0.0 
0.12347 0.0731717 0.0 
0.911164 -0.0562353 0.0 
1.01178 -0.0134874 0.0 
0.994044 0.000617952 0.0 
0.493816 -0.0224485 0.0 
1.00546 -0.000325678 0.0 
1.0033 0 0.0 
1.00503 0.000416246 0.0 
0.914846 0.0302661 0.0 
1.00558 7.69163e-05 0.0 
0.656782 0.0110382 0.0 
0.612438 -0.431366 0.0 
1.00566 -0.00067457 0.0 
1.29194e-87 8.54416e-89 0.0 
0.0599839 0.00195521 0.0 
1.00123 -0.00225064 0.0 
0.0409423 -0.00575421 0.0 