<VTKFile type="UnstructuredGrid" version="0.1" byte_order="LittleEndian">
  <UnstructuredGrid>
    <Piece NumberOfPoints="13526" NumberOfCells="26863">
      <Points>
        <DataArray type = "Float64" NumberOfComponents="3" format="ascii">
0 0 0.0 
14 0 0.0 
14 8 0.0 
0 8 0.0 
0.383893 2.91152 0.0 
4.49116 4.0142 0.0 
4.00813 4.01182 0.0 
4.18149 3.98861 0.0 
4.50258 3.99737 0.0 
3.91677 4.02041 0.0 
4.70958 7.08222 0.0 
4.07057 3.9639 0.0 
4.53824 7.43039 0.0 
3.8191 4.22345 0.0 
3.98741 4.04054 0.0 
3.98768 4.02653 0.0 
4.94157 3.98326 0.0 
9.69128 3.27134 0.0 
1.21408 1.2833 0.0 
4.10206 3.96084 0.0 
6.92943 4.80437 0.0 
4.47538 4.03375 0.0 
4.67405 4.10923 0.0 
4.1789 4.0308 0.0 
4.80484 4.03022 0.0 
4.61584 4.00791 0.0 
12.1265 0 0.0 
4.00565 4.00149 0.0 
10.5103 5.31673 0.0 
4.30241 3.97961 0.0 
5.4677 4.03011 0.0 
4.13489 4.05432 0.0 
4.3101 3.99238 0.0 
4.12608 4.0407 0.0 
4.5188 4.031 0.0 
4.01554 4.00335 0.0 
4.09531 4.03723 0.0 
0 3.36284 0.0 
4.93697 3.93496 0.0 
11.0142 2.68929 0.0 
10.2825 1.1779 0.0 
10.1734 4.4195 0.0 
4.0273 4.01367 0.0 
10.7133 0.39982 0.0 
4.37487 4.03878 0.0 
4.62342 4.01415 0.0 
5.2525 4.08102 0.0 
5.17517 4.1161 0.0 
13.8261 5.94601 0.0 
4.48765 4.04193 0.0 
14 3.14675 0.0 
4.12607 4.05951 0.0 
4.00988 3.97037 0.0 
4.2483 4.03635 0.0 
4.0955 3.94899 0.0 
4.03444 4.04627 0.0 
4.00163 4.02959 0.0 
4.02005 3.99731 0.0 
5.23503 8 0.0 
2.56443 3.80163 0.0 
4.15165 4.04471 0.0 
4.19186 4.05533 0.0 
5.35828 4.09214 0.0 
4.22492 3.96395 0.0 
4.45409 2.45801 0.0 
4.6207 4.09144 0.0 
4.058 3.98601 0.0 
4.35473 4.03787 0.0 
8.4574 2.322 0.0 
4.56283 3.99857 0.0 
4.03832 3.98435 0.0 
4.15825 4.03374 0.0 
4.04672 4.0202 0.0 
4.94501 3.90266 0.0 
7.58425 5.24486 0.0 
4.54772 3.97659 0.0 
3.96947 4.02134 0.0 
4.21303 3.97045 0.0 
5.28835 3.91341 0.0 
3.96297 3.96024 0.0 
4.09803 3.98339 0.0 
10.4466 3.51765 0.0 
2.61514 0.506135 0.0 
4.11692 3.94964 0.0 
4.59397 4.51014 0.0 
3.95785 3.95439 0.0 
4.051 4.00074 0.0 
4.02972 4.04518 0.0 
4.53576 4.02646 0.0 
3.97141 4.03046 0.0 
4.88569 3.98105 0.0 
3.97561 4.03322 0.0 
3.97816 4.02179 0.0 
4.04633 4.03304 0.0 
3.96767 4.02507 0.0 
4.53971 3.97638 0.0 
3.59675 3.72333 0.0 
4.90839 4.00372 0.0 
4.54225 3.97864 0.0 
4.3099 4.04149 0.0 
4.18998 4.04971 0.0 
4.54991 3.98013 0.0 
3.93276 3.9602 0.0 
4.73521 7.52615 0.0 
6.98691 2.68677 0.0 
4.89402 3.94006 0.0 
4.51298 3.98646 0.0 
3.10914 5.59567 0.0 
8.48285 5.046 0.0 
12.6385 3.42281 0.0 
4.00964 3.98933 0.0 
2.46638 6.41982 0.0 
4.98619 3.93198 0.0 
4.55171 4.00358 0.0 
3.31161 1.01031 0.0 
4.07116 4.09083 0.0 
14 1.00091 0.0 
3.1002 2.25282 0.0 
6.52781 1.51786 0.0 
6.37297 2.73989 0.0 
6.50541 6.65271 0.0 
4.0914 3.96216 0.0 
5.25032 1.89548 0.0 
5.20281 3.96498 0.0 
4.15131 3.98564 0.0 
5.29269 4.05862 0.0 
4.65935 4.04515 0.0 
4.1403 4.03691 0.0 
4.05312 3.99197 0.0 
13.7435 8 0.0 
4.11702 4.02719 0.0 
6.67367 0 0.0 
4.00932 4.01975 0.0 
6.82471 4.26136 0.0 
4.20354 4.03712 0.0 
11.7251 4.3741 0.0 
11.1865 7.25481 0.0 
4.27286 3.99127 0.0 
4.20589 3.97883 0.0 
4.51914 3.99788 0.0 
4.47099 4.06169 0.0 
4.63883 4.00936 0.0 
6.22735 7.50315 0.0 
7.16062 3.035 0.0 
4.21157 4.04585 0.0 
13.1179 3.50662 0.0 
4.01425 3.98947 0.0 
8.95603 7.57132 0.0 
4.22222 4.09636 0.0 
3.98122 4.01031 0.0 
4.09065 3.95069 0.0 
9.65423 4.26818 0.0 
3.69166 4.54418 0.0 
4.46236 4.00947 0.0 
1.94587 1.61999 0.0 
4.62543 3.98261 0.0 
4.08332 4.07128 0.0 
4.54778 4.01674 0.0 
4.08927 3.9549 0.0 
4.53801 4.03291 0.0 
4.52497 4.00752 0.0 
2.66716 0 0.0 
3.9023 6.84053 0.0 
4.09428 3.96323 0.0 
13.1818 2.98063 0.0 
9.69483 7.24214 0.0 
4.18332 3.96996 0.0 
4.5129 3.99871 0.0 
4.00773 4.00001 0.0 
3.90873 3.96021 0.0 
12.0372 1.49526 0.0 
4.2904 3.92587 0.0 
11.8702 0.212102 0.0 
12.1521 3.04174 0.0 
4.05399 4.05242 0.0 
5.11537 3.91723 0.0 
4.0891 3.98536 0.0 
12.6381 7.48703 0.0 
6.38052 3.13775 0.0 
5.9291 5.15993 0.0 
4.00923 4.01305 0.0 
3.22014 3.32392 0.0 
9.4176 1.73395 0.0 
4.76297 3.98343 0.0 
5.24537 4.1668 0.0 
7.83547 2.82767 0.0 
4.46368 4.04155 0.0 
4.1152 4.03957 0.0 
4.06062 3.97377 0.0 
8.35832 2.9685 0.0 
13.4699 7.45697 0.0 
1.21548 8 0.0 
4.01229 3.97705 0.0 
5.81584 4.04525 0.0 
1.48228 7.49995 0.0 
3.88273 3.53347 0.0 
4.09808 4.03387 0.0 
4.00414 3.99309 0.0 
4.00577 3.97873 0.0 
8.91842 0.967714 0.0 
4.50991 3.99789 0.0 
13.1592 5.25121 0.0 
7.62224 2.88267 0.0 
7.22419 0.703495 0.0 
3.9678 4.04964 0.0 
3.14591 3.72728 0.0 
3.84668 3.90466 0.0 
10.151 2.94085 0.0 
4.00241 3.93803 0.0 
1.77673 6.77593 0.0 
5.8599 3.0813 0.0 
6.98728 5.60342 0.0 
4.84915 4.03246 0.0 
4.21339 4.02989 0.0 
12.9422 5.39238 0.0 
3.92966 4.29351 0.0 
4.6103 3.91602 0.0 
4.96907 4.10551 0.0 
9.95558 3.59879 0.0 
4.11575 4.03408 0.0 
9.70352 1.23095 0.0 
4.20274 4.07949 0.0 
7.01384 4.49853 0.0 
12.5015 1.14918 0.0 
4.09797 3.95385 0.0 
4.23052 4.09368 0.0 
4.20868 4.08388 0.0 
4.02321 3.97317 0.0 
4.51556 3.99915 0.0 
4.21025 4.03415 0.0 
4.41386 4.02768 0.0 
4.35459 4.71835 0.0 
13.5337 6.38237 0.0 
4.79479 4.50193 0.0 
3.98799 3.95955 0.0 
4.50992 3.99846 0.0 
8.82235 8 0.0 
4.23781 4.09881 0.0 
4.10259 4.04016 0.0 
4.69512 3.9114 0.0 
8.67201 2.39205 0.0 
4.58721 3.08817 0.0 
4.06329 4.04721 0.0 
4.96928 3.97464 0.0 
4.18805 3.96826 0.0 
13.2903 7.45798 0.0 
4.84809 6.69312 0.0 
4.01461 4.01826 0.0 
0.417479 6.31883 0.0 
10.6153 7.62373 0.0 
4.50155 3.99855 0.0 
4.05083 4.0417 0.0 
13.6945 7.80328 0.0 
3.98977 4.04663 0.0 
3.99153 4.04254 0.0 
4.57553 4.01147 0.0 
4.29622 3.9844 0.0 
4.11271 4.04576 0.0 
4.16891 4.04593 0.0 
3.97296 4.00674 0.0 
11.3714 7.19716 0.0 
9.192 5.81999 0.0 
4.71442 4.01913 0.0 
3.53429 0 0.0 
4.67134 3.89044 0.0 
4.08953 4.02996 0.0 
4.14091 4.04918 0.0 
2.30378 3.03595 0.0 
4.19812 4.04525 0.0 
4.55263 4.00322 0.0 
7.40997 8 0.0 
11.1954 3.03087 0.0 
2.86414 6.59491 0.0 
4.42128 3.99608 0.0 
9.9204 3.84008 0.0 
4.90953 3.97583 0.0 
1.1914 3.57636 0.0 
4.1283 4.05439 0.0 
6.78993 2.13526 0.0 
3.45006 4.08866 0.0 
0.846754 0.565038 0.0 
6.64238 0.26606 0.0 
6.21308 5.48605 0.0 
5.97375 5.37063 0.0 
4.02904 3.9664 0.0 
7.59973 7.22298 0.0 
12.6277 1.80732 0.0 
14 4.58149 0.0 
5.85073 0.410811 0.0 
13.0902 7.46595 0.0 
4.06134 4.07919 0.0 
4.38687 4.07952 0.0 
4.07449 3.94324 0.0 
12.3999 3.01846 0.0 
4.34245 3.99225 0.0 
7.6398 2.6807 0.0 
4.51225 4.03393 0.0 
3.96066 4.00697 0.0 
6.21696 4.34917 0.0 
4.96395 4.01931 0.0 
13.1661 5.68046 0.0 
13.7895 0 0.0 
4.10795 4.02897 0.0 
4.29884 3.99249 0.0 
11.4357 2.10385 0.0 
4.02074 4.0027 0.0 
3.58115 4.19886 0.0 
4.00791 4.0033 0.0 
4.0088 3.9805 0.0 
9.75515 2.36072 0.0 
4.55143 4.02796 0.0 
4.23813 4.04356 0.0 
4.02947 3.97325 0.0 
4.26037 4.04317 0.0 
4.6454 3.91884 0.0 
4.01129 4.00596 0.0 
11.2341 4.91025 0.0 
2.89315 5.49872 0.0 
4.92704 4.10133 0.0 
4.30033 6.55304 0.0 
4.01755 3.97046 0.0 
4.52386 4.04096 0.0 
0.195775 6.68759 0.0 
6.95088 7.06331 0.0 
6.42419 4.18044 0.0 
10.0323 4.54408 0.0 
4.05373 4.0206 0.0 
4.0593 4.0207 0.0 
4.44623 3.99097 0.0 
0.348252 3.38744 0.0 
4.11868 3.97589 0.0 
4.15516 3.94365 0.0 
4.01695 3.96353 0.0 
6.85323 7.27439 0.0 
8.32777 8 0.0 
12.3258 3.19293 0.0 
5.0604 3.97687 0.0 
1.33311 1.459 0.0 
4.74535 3.98025 0.0 
5.06461 4.08435 0.0 
4.00437 3.9841 0.0 
3.9902 3.99964 0.0 
4.0134 3.97877 0.0 
3.03193 6.72582 0.0 
4.5555 3.99978 0.0 
4.01079 3.9893 0.0 
14 3.84943 0.0 
4.36156 4.08272 0.0 
2.48952 3.59766 0.0 
9.54961 6.99546 0.0 
4.06385 4.03089 0.0 
4.20001 4.03326 0.0 
6.1685 4.52049 0.0 
4.21639 4.03358 0.0 
3.92685 3.99783 0.0 
3.89766 4.03669 0.0 
11.5792 7.84461 0.0 
0.551344 1.2516 0.0 
4.02575 3.96118 0.0 
3.90895 4.0823 0.0 
6.49849 5.21743 0.0 
5.99012 4.04484 0.0 
0.845864 1.62601 0.0 
6.11889 4.72308 0.0 
11.8107 0.651755 0.0 
4.00163 4.00499 0.0 
4.41872 3.99555 0.0 
11.8351 6.74811 0.0 
4.03795 3.98521 0.0 
4.1127 3.96242 0.0 
4.73456 4.01964 0.0 
4.15116 3.93854 0.0 
4.13176 4.07898 0.0 
10.2186 2.28825 0.0 
6.73412 3.55133 0.0 
4.85957 4.01386 0.0 
4.00264 4.12027 0.0 
4.00279 3.99128 0.0 
4.05385 4.00986 0.0 
3.77161 4.00817 0.0 
2.41658 7.83801 0.0 
2.77495 7.51281 0.0 
6.32476 7.00417 0.0 
12.5996 5.63737 0.0 
4.64409 4.00438 0.0 
3.84347 4.30661 0.0 
4.02586 3.98561 0.0 
4.231 4.04427 0.0 
4.52614 3.99766 0.0 
7.99609 6.1415 0.0 
4.03631 3.98654 0.0 
5.18263 3.94369 0.0 
2.37857 1.61641 0.0 
4.05636 4.03088 0.0 
7.34292 5.19319 0.0 
3.96806 4.01296 0.0 
11.0968 5.75296 0.0 
4.55406 3.99831 0.0 
4.15267 4.79464 0.0 
4.01845 4.01173 0.0 
4.46704 4.01899 0.0 
4.53313 4.00673 0.0 
4.5467 4.03146 0.0 
5.16076 4.06745 0.0 
12.5 4.90639 0.0 
4.53595 4.04072 0.0 
7.20657 5.05296 0.0 
3.05391 4.40989 0.0 
4.0108 3.9997 0.0 
4.08296 4.00762 0.0 
4.41004 4.02839 0.0 
4.53323 4.0151 0.0 
5.30644 0.173765 0.0 
0.198711 3.79297 0.0 
4.72583 0.194576 0.0 
3.90471 2.31823 0.0 
4.5409 4.00705 0.0 
4.93652 4.08387 0.0 
4.45877 3.99673 0.0 
4.05607 4.08796 0.0 
4.47928 4.02138 0.0 
4.73668 3.89169 0.0 
4.04877 3.98924 0.0 
3.96886 4.00175 0.0 
4.64006 3.99672 0.0 
7.19396 5.74117 0.0 
12.2741 7.78702 0.0 
4.88498 4.06106 0.0 
4.82507 4.1106 0.0 
4.10171 3.98704 0.0 
4.18078 4.21348 0.0 
0.347962 1.57688 0.0 
4.20801 4.04698 0.0 
4.22773 4.04303 0.0 
7.00233 6.47926 0.0 
7.78364 0 0.0 
6.32437 6.34013 0.0 
4.00353 3.9915 0.0 
5.62592 4.80931 0.0 
4.7383 3.87602 0.0 
4.10984 4.03331 0.0 
4.15892 3.99818 0.0 
1.64832 6.43608 0.0 
13.7604 0.5867 0.0 
4.03688 3.99254 0.0 
9.90278 1.9712 0.0 
4.04651 4.09613 0.0 
4.25841 3.96952 0.0 
4.03014 4.02376 0.0 
4.54396 3.89411 0.0 
4.0104 4.03331 0.0 
0.898692 6.20579 0.0 
0.262648 3.59525 0.0 
11.4878 0.917753 0.0 
4.61916 3.98898 0.0 
5.35657 3.74726 0.0 
4.05828 4.04836 0.0 
4.5671 3.97265 0.0 
4.14043 4.04552 0.0 
9.65721 5.90637 0.0 
7.56457 6.83703 0.0 
4.10351 3.9843 0.0 
4.35176 4.03658 0.0 
7.14156 0.150746 0.0 
11.0734 3.76248 0.0 
2.66751 5.16506 0.0 
5.42684 4.66861 0.0 
4.09728 4.03704 0.0 
11.6885 4.91224 0.0 
8.64936 2.61471 0.0 
9.46048 3.26649 0.0 
4.33922 4.03831 0.0 
7.06289 0.290476 0.0 
4.2079 4.1064 0.0 
3.85377 3.84164 0.0 
[...]
<PointData>
  <DataArray type = "Float64" Name="Vitesse" NumberOfComponents="3" format="ascii">
1 0 0.0 
1.00383 0 0.0 
1.00177 0 0.0 
1 0 0.0 
0.999969 -0.000137001 0.0 
4.23325e-43 -2.58255e-44 0.0 
0.0803161 0.0455486 0.0 
0.000852025 3.49467e-05 0.0 
0.0179172 0.00190759 0.0 
0.858457 0.0127767 0.0 
1.00581 0.00105142 0.0 
0.874938 -0.0941804 0.0 
1.00523 0.000723421 0.0 
0.970461 0.0433724 0.0 
0.774267 0.197514 0.0 
0.682338 0.189121 0.0 
0.469686 0.0104737 0.0 
1.00742 0.000910236 0.0 
1.0002 -0.000575052 0.0 
0.815816 -0.0524016 0.0 
1.00771 -0.00203595 0.0 
0.132903 -0.0159822 0.0 
0.959211 -0.0453136 0.0 
0 0 0.0 
0.371403 -0.0172853 0.0 
0.117813 -0.00179163 0.0 
1.00483 0 0.0 
0 0 0.0 
1.00621 -0.00130716 0.0 
0.221644 0.00569172 0.0 
0.604738 -0.00576787 0.0 
0.538633 0.0594357 0.0 
0.00730511 0.000545031 0.0 
1.40139e-180 2.62555e-182 0.0 
0.145945 -0.0182435 0.0 
0 0 0.0 
1.88793e-284 4.52653e-285 0.0 
1 0 0.0 
0.804175 0.0187346 0.0 
1.00639 0.00117199 0.0 
1.00576 0.000372603 0.0 
1.00829 -0.00147239 0.0 
0 0 0.0 
1.00537 0.000132391 0.0 
0.085536 -0.00811656 0.0 
0.13208 -0.00990516 0.0 
0.808491 -0.0157305 0.0 
0.943143 -0.0160594 0.0 
1.002 -0.00247995 0.0 
0.238567 -0.0248462 0.0 
1.0058 0.00172229 0.0 
0.761415 0.104263 0.0 
0.963852 -0.325265 0.0 
0 0 0.0 
1.03215 -0.096564 0.0 
0.924578 0.31659 0.0 
0.71996 0.309248 0.0 
0 0 0.0 
1.00568 0 0.0 
0.995766 -0.00019997 0.0 
0.084722 0.00328057 0.0 
0.373202 0.0151982 0.0 
0.857366 -0.0129012 0.0 
0.53232 0.00210109 0.0 
1.00748 -0.00496267 0.0 
0.866406 -0.0504604 0.0 
5.14492e-06 -5.55355e-07 0.0 
0.0482789 -0.00498035 0.0 
1.00688 0.000305241 0.0 
0.0342982 0.0129761 0.0 
0.186033 -0.0241662 0.0 
0 0 0.0 
0 0 0.0 
0.948225 0.0166624 0.0 
1.00722 -0.00135935 0.0 
0.347422 0.0151133 0.0 
0.725404 0.0673231 0.0 
0.397566 0.00428382 0.0 
0.891332 0.00949733 0.0 
0.859695 -0.137469 0.0 
0.0817742 0.0034261 0.0 
1.00792 0.00147242 0.0 
1.00143 -0.000611737 0.0 
0.980597 -0.0675523 0.0 
1.0324 -0.000833428 0.0 
0.87431 -0.124905 0.0 
0 0 0.0 
0.912559 0.324182 0.0 
0.12022 -0.0171221 0.0 
0.750263 0.107083 0.0 
0.460093 0.0137072 0.0 
0.751098 0.131251 0.0 
0.686245 0.104762 0.0 
0.430285 0.133656 0.0 
0.743907 0.0768367 0.0 
0.345951 0.0127263 0.0 
0.981844 -0.0147793 0.0 
0.379282 0.00108708 0.0 
0.315231 0.0121378 0.0 
0.0490311 -0.00322134 0.0 
0.191273 0.00635373 0.0 
0.298791 0.0140475 0.0 
0.875531 -0.0772047 0.0 
1.0054 0.000524767 0.0 
1.00741 0.000177075 0.0 
0.771129 0.0207233 0.0 
0.185859 0.00510831 0.0 
1.00229 0.00587268 0.0 
1.00706 -0.00128693 0.0 
1.01073 0.00132478 0.0 
0.3608 -0.149509 0.0 
1.00158 0.00244244 0.0 
0.822105 0.0170962 0.0 
0.00298913 -0.000611802 0.0 
1.00244 -0.00157219 0.0 
1.04674 0.209203 0.0 
1.00393 0.000689221 0.0 
1.00125 -0.00404642 0.0 
1.00654 -0.000301557 0.0 
1.00782 0.000164029 0.0 
1.00676 -0.000336287 0.0 
0.823374 -0.0621575 0.0 
1.00692 -0.00166487 0.0 
0.637514 0.00941057 0.0 
0.0394736 7.26472e-05 0.0 
0.695724 -0.0128146 0.0 
0.396081 -0.0358349 0.0 
0 0 0.0 
0 0 0.0 
1.00203 0 0.0 
0 0 0.0 
1.00578 0 0.0 
0.528831 0.307594 0.0 
1.00599 -0.0023867 0.0 
0 0 0.0 
1.00414 -0.00268221 0.0 
1.00423 -0.000411201 0.0 
0.00655655 0.000712527 0.0 
0.214386 0.00460887 0.0 
0.0166285 0.000132288 0.0 
0.504227 -0.0368835 0.0 
0.148063 -0.00219019 0.0 
1.00612 -1.18225e-05 0.0 
1.00753 0.000258785 0.0 
0.053686 0.00115229 0.0 
1.0061 0.00167872 0.0 
0.154123 -0.029244 0.0 
1.00518 -0.000180359 0.0 
1.08821 0.0641469 0.0 
0.604812 0.0329926 0.0 
1.02729 -0.10051 0.0 
0.996273 -0.000810052 0.0 
0.996979 0.0236082 0.0 
0 0 0.0 
1.00045 -0.0013122 0.0 
0.299256 0.0273248 0.0 
1.05929 0.225262 0.0 
0.0603174 -0.0120615 0.0 
0.97964 -0.0919245 0.0 
0.182497 -0.0235887 0.0 
8.86498e-07 -1.7462e-07 0.0 
1.00152 0 0.0 
1.00471 0.0020888 0.0 
0.782409 -0.0533667 0.0 
1.00413 0.00172197 0.0 
1.00496 -0.00033407 0.0 
0.422428 0.00243024 0.0 
0.000159162 1.15217e-05 0.0 
0 0 0.0 
0.892325 -0.0518284 0.0 
1.00515 0.000634527 0.0 
0.994622 -0.016457 0.0 
1.00494 7.93906e-05 0.0 
1.0057 0.00153421 0.0 
0.962036 0.274302 0.0 
0.88661 0.0120463 0.0 
0.0169544 -0.000140816 0.0 
1.00315 -0.000442745 0.0 
1.00836 0.000272899 0.0 
1.00941 -0.00219522 0.0 
0.123283 0.0730372 0.0 
0.995236 -0.00721928 0.0 
1.00633 0.000392807 0.0 
0.381696 0.017624 0.0 
1.00338 -0.0128557 0.0 
1.00719 0.000289545 0.0 
0.212636 -0.0219484 0.0 
2.2568e-95 4.35783e-96 0.0 
0.586812 -0.0571244 0.0 
1.00723 0.000367693 0.0 
1.00234 -0.000551561 0.0 
1.00042 0 0.0 
0.930675 -0.339118 0.0 
0.69598 -0.00531761 0.0 
1.00059 0.000418874 0.0 
0.999198 -0.0272757 0.0 
0 0 0.0 
0.253374 -0.175526 0.0 
0.89582 -0.385343 0.0 
1.00601 0.000161454 0.0 
0.0121882 0.000559537 0.0 
1.00367 -0.00344864 0.0 
1.00723 0.000265967 0.0 
1.00604 -5.6197e-05 0.0 
0.81951 0.126815 0.0 
0.990585 -0.00333827 0.0 
0.942389 -0.0379833 0.0 
1.00694 0.000945389 0.0 
0.965829 -0.189603 0.0 
1.00078 0.00125589 0.0 
1.00884 0.000465981 0.0 
1.00751 -0.00123824 0.0 
0.41246 -0.0165605 0.0 
3.80774e-189 9.7006e-191 0.0 
1.0038 -0.00306654 0.0 
0.992871 0.0588183 0.0 
0.950342 0.026807 0.0 
0.919673 -0.0251001 0.0 
1.00814 0.00136755 0.0 
0 0 0.0 
1.00596 0.000319149 0.0 
0.951385 0.0614808 0.0 
1.00757 -0.00230539 0.0 
1.00483 0.000526208 0.0 
0.969354 -0.0810983 0.0 
1.06469 0.0551635 0.0 
1.00094 0.0626444 0.0 
0.950275 -0.259087 0.0 
4.69135e-05 4.37063e-06 0.0 
0 0 0.0 
0.00699247 -0.00111717 0.0 
1.02486 0.0130769 0.0 
1.00237 -0.00180617 0.0 
1.0248 -0.00756824 0.0 
0.887136 -0.218399 0.0 
0.0052782 0.000310957 0.0 
1.00516 0 0.0 
1.08762 0.053999 0.0 
0.112672 0.0155417 0.0 
0.95008 0.0281612 0.0 
1.0069 0.000351104 0.0 
1.01342 -0.00626492 0.0 
0.816801 0.212366 0.0 
0.530761 0.0130579 0.0 
0.460033 0.00160722 0.0 
1.00253 -0.000536835 0.0 
1.00666 0.00133755 0.0 
0.299719 0.14429 0.0 
1.00003 0.000335132 0.0 
1.00443 -0.000184095 0.0 
1.99888e-41 1.46253e-42 0.0 
0.762278 0.226969 0.0 
1.00209 -0.000199917 0.0 
0.804507 0.205455 0.0 
0.787073 0.217395 0.0 
0.0576783 -0.0182066 0.0 
0.134942 0.00418284 0.0 
0.315219 0.043966 0.0 
0.0892784 0.0016427 0.0 
0.675138 -0.0143668 0.0 
1.00415 -0.000464646 0.0 
1.00625 -0.000880604 0.0 
0.246029 -0.0108332 0.0 
1.00273 0 0.0 
1.00999 0.0239291 0.0 
0 0 0.0 
0.305316 0.0276085 0.0 
0.998497 -0.00208739 0.0 
0.0352309 -0.000302577 0.0 
0.00256783 -0.000491727 0.0 
1.00572 0 0.0 
1.00649 0.00145687 0.0 
1.00239 0.00250587 0.0 
0.00901916 0.000230447 0.0 
0.943178 0.00126745 0.0 
0.503615 0.0140225 0.0 
0.999497 -5.8611e-05 0.0 
0.577633 0.0712021 0.0 
1.00709 -7.14916e-05 0.0 
0.980911 0.0054796 0.0 
1.00013 -0.000181922 0.0 
1.00582 -6.78921e-05 0.0 
1.00866 -0.00144251 0.0 
1.00923 -0.00159332 0.0 
1.02135 -0.245389 0.0 
1.00585 -0.000296879 0.0 
1.00496 0.000885373 0.0 
1.00532 -0.00573005 0.0 
1.00552 -0.000245047 0.0 
1.00273 -0.000512403 0.0 
1.03339 0.233973 0.0 
0.766164 -0.0283174 0.0 
1.08057 -0.134623 0.0 
1.00515 0.00181275 0.0 
0.0281153 0.00248088 0.0 
1.0072 0.000234562 0.0 
0.169461 -0.0201398 0.0 
0.747247 -0.0128841 0.0 
1.00781 -0.00369266 0.0 
0.420493 -0.00712 0.0 
1.00317 -0.00271197 0.0 
1.00396 0 0.0 
0 0 0.0 
0.000446721 -7.10989e-06 0.0 
1.00577 0.00089129 0.0 
0 0 0.0 
0.977605 0.0158058 0.0 
0 0 0.0 
0.878332 -0.3676 0.0 
1.00668 0.000644791 0.0 
0.14726 -0.0236662 0.0 
9.49206e-06 -7.0114e-07 0.0 
0.89905 -0.208389 0.0 
0.0184406 0.000377833 0.0 
0.927521 0.0290956 0.0 
0 0 0.0 
1.00689 -0.00183614 0.0 
1.00129 0.00540479 0.0 
0.905936 -0.0266251 0.0 
1.00608 0.00238219 0.0 
0.994904 -0.302472 0.0 
0.258768 -0.0280008 0.0 
1 0.000129147 0.0 
1.0062 -0.000292365 0.0 
0.993713 -0.00394556 0.0 
1.00849 -0.00153476 0.0 
0 0 0.0 
0 0 0.0 
0.0935847 0.00251991 0.0 
0.999969 -3.98369e-05 0.0 
0.313517 -0.00253637 0.0 
0.979036 -0.0466168 0.0 
1.00669 -0.280649 0.0 
1.00611 -0.000195056 0.0 
1.00537 0 0.0 
1.00475 0.00229176 0.0 
0.543829 0.0100785 0.0 
1.00021 -0.000714334 0.0 
0.398163 0.0198373 0.0 
0.820186 -0.0214089 0.0 
0.805066 -0.413672 0.0 
0.44911 -0.160221 0.0 
0.892438 -0.319107 0.0 
1.00275 0.00233751 0.0 
8.54888e-84 2.75945e-86 0.0 
0.312474 -0.112654 0.0 
0.965942 -0.000271855 0.0 
0.821759 -0.021704 0.0 
0.996495 -0.00110134 0.0 
1.00514 -0.000437297 0.0 
0.000374423 0.000118068 0.0 
0 0 0.0 
1.00857 -0.00373154 0.0 
0 0 0.0 
0.844826 -0.0236304 0.0 
0.884597 0.0251308 0.0 
1.00387 -9.36074e-05 0.0 
1.00004 -0.000234826 0.0 
1.03647 -0.253157 0.0 
0.903683 0.0630664 0.0 
1.00815 -0.00185072 0.0 
0.709776 -0.00578826 0.0 
1.00006 -0.000444747 0.0 
1.00918 -0.0033101 0.0 
1.00502 0.000243561 0.0 
3.54885e-10 4.47764e-10 0.0 
0.0150847 0.001259 0.0 
1.00406 -0.00086641 0.0 
0.130344 -0.0174889 0.0 
0.739129 -0.0361654 0.0 
0.266171 -0.010953 0.0 
1.02882 -0.0559877 0.0 
1.07092 0.153575 0.0 
1.00649 0.000751732 0.0 
1.00818 0.000698425 0.0 
0.348017 -0.00496172 0.0 
0.959654 0.148504 0.0 
0.49989 -0.352599 0.0 
0 0 0.0 
0.944503 0.00100839 0.0 
1.00166 0.000228969 0.0 
1.00221 0.000778743 0.0 
1.00648 -0.000123806 0.0 
1.00405 -0.00241993 0.0 
0.162228 0.00412924 0.0 
0.984978 0.0443724 0.0 
0.251498 -0.0480312 0.0 
0.0228993 -0.000241953 0.0 
0.021049 0.000551626 0.0 
1.00637 -0.000798968 0.0 
0.0551689 -0.00479486 0.0 
0.754793 0.0116231 0.0 
1.00082 -0.00177634 0.0 
0.0959631 0.0250873 0.0 
1.00734 -0.00143098 0.0 
0.71337 0.021777 0.0 
1.00543 -0.00132874 0.0 
0.0194497 -0.000342087 0.0 
1.01707 0.0173026 0.0 
0 0 0.0 
0.00227613 -4.13804e-05 0.0 
1.13159e-80 -2.16348e-81 0.0 
0.175712 -0.0248204 0.0 
0.730364 -0.0166514 0.0 
1.00407 -0.00341301 0.0 
0.26588 -0.0297498 0.0 
1.00744 -0.00166066 0.0 
0.993597 0.00668077 0.0 
0 0 0.0 
0 0 0.0 
0.00807949 -0.000856989 0.0 
0.0375559 -0.00627515 0.0 
1.00507 -0.000158615 0.0 
0.999992 2.87712e-05 0.0 
1.00444 -0.000239837 0.0 
1.00447 -0.0054934 0.0 
0.00674158 -0.00123575 0.0 
0.815267 -0.0265588 0.0 
0.0137594 0.0012143 0.0 
1.02132 0.21868 0.0 
0.0290829 -0.0044714 0.0 
0.996041 0.0233376 0.0 
0 0 0.0 
0.706621 -0.0460563 0.0 
0.190491 0.0129912 0.0 
1.00723 -0.00110105 0.0 
1.00341 -0.000163698 0.0 
0.64429 -0.0270969 0.0 
0.94478 -0.0335621 0.0 
1.96623e-117 5.92595e-119 0.0 
1.07316 0.0740049 0.0 
1.00001 -0.000169761 0.0 
0.0882347 0.00129151 0.0 
4.83837e-07 -9.47364e-09 0.0 
1.00665 -0.000583843 0.0 
1.00589 0 0.0 
1.00725 -0.000441597 0.0 
0.452921 -0.307368 0.0 
1.01111 -0.00388479 0.0 
1.01516 0.0208097 0.0 
-4.11955e-211 -2.66125e-212 0.0 
-2.8488e-200 -2.73449e-201 0.0 
1.00057 0.00144198 0.0 
1.00404 0.000377765 0.0 
0 0 0.0 
1.00636 0.00056603 0.0 
1.00421 0.204158 0.0 
0.40716 0.00599793 0.0 
0.181686 0.0616516 0.0 
1.03027 0.0128397 0.0 
0.784415 0.342664 0.0 
1.00012 0.000785486 0.0 
0.999977 6.63812e-06 0.0 
1.00521 0.000333538 0.0 
0.228778 0.0228863 0.0 
1.00818 0.00486355 0.0 
0.881602 0.242958 0.0 
0.407745 0.0267047 0.0 
0.153187 0.0150975 0.0 
1.00596 -0.000883284 0.0 
1.0061 -0.000461938 0.0 
0.0539931 -0.000540816 0.0 
0.0266675 -0.0019575 0.0 
1.00589 -1.7546e-05 0.0 
0.977101 0.00206709 0.0 
0.999697 0.00505277 0.0 
1.01308 -0.00550883 0.0 
6.54877e-287 1.57014e-287 0.0 
1.00648 -0.00232759 0.0 
1.00705 0.000373238 0.0 
1.00771 0.000563571 0.0 
0.0335608 -0.00342905 0.0 
1.0059 -3.83463e-05 0.0 
1.12222 0.0816457 0.0 
0.961746 -0.0447014 0.0 
1.00445 -0.00132735 0.0 
0.214498 0.0682708 0.0 
0.976528 0.00118521 0.0 
0.0644068 -0.002125 0.0 
1.00703 0.000715134 0.0 
1.00484 -0.00576167 0.0 
1.00639 -0.000479123 0.0 
1.00409 -0.00021237 0.0 
0.802568 0.319093 0.0 
0 0 0.0 
0 0 0.0 
0.18413 -0.0202231 0.0 
1.0067 0.0010899 0.0 
0.999119 0.000423108 0.0 
0.0370766 -0.00395654 0.0 
0 0 0.0 
0.833564 0.117253 0.0 
0.902615 -0.00392166 0.0 
0.0202904 -0.00278738 0.0 
0.0801898 0.00125319 0.0 
1.03064 -0.0260324 0.0 
0.692401 0.000934567 0.0 
0.169444 0.0583527 0.0 
1.0043 0 0.0 
0.94241 0.26797 0.0 
0.963709 -0.283015 0.0 
0.26294 0.187541 0.0 
1.10627 0.0932205 0.0 
1.00567 -0.000469691 0.0 
1.00794 0.00207649 0.0 
1.01329 0.00361885 0.0 
0.924815 -0.305858 0.0 
0.997326 -0.000783319 0.0 
0.999357 0.000717012 0.0 
1.00662 0.000640935 0.0 
0 0 0.0 
1.00002 -0.000183997 0.0 
1.00389 -0.00366391 0.0 
1.00104 -0.00132956 0.0 
1.00703 0.00124361 0.0 
0.336997 0.00489494 0.0 
2.62975e-86 3.93746e-87 0.0 
1.00079 0 0.0 
0.996136 -0.0454753 0.0 
1.00024 0.000356421 0.0 
1.00592 0.00131586 0.0 
0.962315 -0.0565718 0.0 
1.00497 -0.000233121 0.0 
1.01012 0.0041846 0.0 
0.973463 0.00374159 0.0 
1.01819 0.0100475 0.0 
0.0126957 -0.0022557 0.0 
0.635656 0.0143967 0.0 
0.069524 -0.00251158 0.0 
0.704858 0.0905862 0.0 
1.01328 -0.000186256 0.0 
1.00135 0.00282628 0.0 
1.00447 0.107111 0.0 
0.283928 -0.0409478 0.0 
0.493325 -0.0224232 0.0 
1.00835 -0.00168982 0.0 
0.0469131 -0.00259864 0.0 
1.00621 0.000404272 0.0 
1.00885 0.0019184 0.0 
1.00003 0.00030057 0.0 
1.00754 0.000514991 0.0 
1.00663 0.000865345 0.0 
1.00701 -0.000668857 0.0 
1.00624 -0.000372367 0.0 
0.127091 -0.0114704 0.0 
1.00799 -0.00711003 0.0 
1.00539 -0.000168869 0.0 
1.00567 -0.00136121 0.0 
1.00591 0.000445931 0.0 
0.0143092 0.000964155 0.0 
0.999796 -0.000812842 0.0 
1.00575 -0.000226075 0.0 
0.384098 -0.010836 0.0 
0.00158578 -0.000454954 0.0 
0.300359 0.126191 0.0 
1 0.000232113 0.0 
0.108098 -0.0152757 0.0 
0.0274141 -6.22673e-05 0.0 
1.00661 -0.000738162 0.0 
0 0 0.0 
0.0239545 -0.00257868 0.0 
1.00586 0.000249322 0.0 
0.406167 -0.0978748 0.0 
1.00646 0.000841794 0.0 
0.33189 -0.0058723 0.0 
1.00508 0.000138153 0.0 
0.300824 0.00833118 0.0 
1.00726 0.000461096 0.0 
0.997598 0.00165516 0.0 
0.203598 0.0173639 0.0 
1.00568 -0.000960428 0.0 
0.00323488 -0.000769957 0.0 
0.897526 0.0309781 0.0 
1.00394 0.000252332 0.0 
0.00645654 -0.00114007 0.0 
0.812733 0.0141371 0.0 
0.260245 0.0228681 0.0 
0.893597 0.003027 0.0 
1.00833 0.00129167 0.0 
0.93923 0.0504402 0.0 
0.956898 0.000364808 0.0 
0.868727 -0.0163706 0.0 
0.862275 0.0304699 0.0 
0.999989 0.00029427 0.0 
0.722948 -0.0308436 0.0 
0.0306626 -0.0168162 0.0 
0.00346734 -0.000708985 0.0 
1.00495 -0.00253155 0.0 
0.000287602 -3.19521e-05 0.0 
1 0 0.0 
0.983025 0.139596 0.0 
1.00724 0.000382323 0.0 
0.00317184 -0.000626323 0.0 
1.00741 0.000297315 0.0 
1.00571 -0.0449626 0.0 
1.00732 0.000457421 0.0 
0 0 0.0 
0.705788 0.0132974 0.0 
1.00505 -0.00248126 0.0 
1.12528 0.0837751 0.0 
0.998892 0.00447516 0.0 
1.0045 0.00129841 0.0 
1.00415 0.00100339 0.0 
1.00173 -0.000505719 0.0 
1.39748e-05 8.13935e-07 0.0 
0.501547 -0.0127903 0.0 
1.04001 -0.00266171 0.0 
1.00596 -6.34587e-05 0.0 
1.00469 -0.00283904 0.0 
0.0138033 -0.00240813 0.0 
0.0395769 -8.57954e-05 0.0 
1.00257 -0.00232721 0.0 
0.0126841 -0.00111198 0.0 
-8.9728e-200 -3.18287e-201 0.0 
1.00617 -0.000414319 0.0 
1.00474 -0.00277708 0.0 
2.05984e-67 -4.95705e-68 0.0 
1.00999 -0.00182655 0.0 
0.787906 -5.73304e-05 0.0 
0.561742 -0.0356897 0.0 
1 -0.000953103 0.0 
0.337446 0.0545034 0.0 
1.04043 0.0231519 0.0 
1.00641 0.0012838 0.0 
1.00336 0.148065 0.0 
1.00519 0.00145166 0.0 
1.00608 -0.000836257 0.0 
0.955452 0.0281599 0.0 
0.0178866 0.00131438 0.0 
1.00739 -0.000771712 0.0 
1.00622 0.00111181 0.0 
0.99988 0.00097552 0.0 
0.0993728 0.0498199 0.0 
1.00598 -1.27223e-06 0.0 
0.0832925 -0.0130676 0.0 
0.0608065 -0.0132106 0.0 
1.01249 0.0260728 0.0 
1.00834 0.00194443 0.0 
1.07955 -0.0934237 0.0 
1.00388 -0.000344541 0.0 
1.00001 -0.000260642 0.0 
1.00266 -0.000718645 0.0 
0.861437 0.0313417 0.0 
0.274088 0.00468835 0.0 
1.00758 0.000323908 0.0 
1.00875 0.000171872 0.0 
1.00336 -0.000492341 0.0 
1.00438 0.00169854 0.0 
1.00427 -0.0029815 0.0 
0.0216037 0.00350859 0.0 
1.00554 9.70477e-05 0.0 
1.00709 0.0004156 0.0 
0.401962 0.00501704 0.0 
0.886679 -0.0210442 0.0 
0.43165 0.00792986 0.0 
0 0 0.0 
0.996269 -0.00719453 0.0 
1.00683 -0.00144074 0.0 
1.00594 -4.59425e-05 0.0 
1.00476 -0.00162613 0.0 
1.00589 -0.000125304 0.0 
1.00288 -0.00273019 0.0 
1.00455 -0.00125086 0.0 
0.181592 0.000384777 0.0 
1.00814 0.00201987 0.0 
0 0 0.0 
1.00449 0.00112979 0.0 
1.00478 -0.00121807 0.0 
0.388559 0.00546529 0.0 
1.00456 -0.000198026 0.0 
0.00645412 -0.00133613 0.0 
0 0 0.0 
0.0259791 0.00125928 0.0 
1.00355 -0.00101962 0.0 
0.988085 0.00146199 0.0 
0.893266 0.0140695 0.0 
0.273826 0.00865543 0.0 
1.00008 -0.000692688 0.0 
1.00432 -0.00171718 0.0 
1.00439 -0.000274112 0.0 
0.927563 -0.164241 0.0 
1.00128 -0.00669153 0.0 
3.08982e-07 -1.11228e-08 0.0 
0 0 0.0 
0.912935 -0.0161505 0.0 
0.938131 -0.00114103 0.0 
0.417327 0.00198387 0.0 
1.05922 0.0949955 0.0 
0.997482 0.0123345 0.0 
0.434549 -0.00138589 0.0 
1.00796 -0.000162601 0.0 
1.0059 0.000516082 0.0 
0.994708 -0.00150213 0.0 
1.00599 -0.000344626 0.0 
0.999997 -0.00043961 0.0 
1.00414 -0.00252624 0.0 
1.00488 -0.000718345 0.0 
1.00085 0.0168763 0.0 
1.00619 -0.000905539 0.0 
1.0069 0.000170345 0.0 
1.00319 -0.00160114 0.0 
1.00672 -0.000693364 0.0 
1.00555 -8.86957e-05 0.0 
1.0107 -0.000493564 0.0 
0.0363446 -0.00716685 0.0 
0.333725 -0.00158754 0.0 
0.353793 -0.0017671 0.0 
1.00565 0.000254738 0.0 
1.0254 0.0209501 0.0 
1.00687 5.92148e-05 0.0 
0.787995 0.141146 0.0 
0.0133138 0.000329134 0.0 
1.0059 -0.000631788 0.0 
1.00622 0.000229438 0.0 
0.862997 0.00184439 0.0 
1.00729 0.000154179 0.0 
1.00007 -0.000223281 0.0 
0.346452 0.00100001 0.0 
1.00477 0.00141296 0.0 
0 0 0.0 
0.794255 -0.00124783 0.0 
0.999832 -0.000286639 0.0 
0.99767 0.0043449 0.0 
0.402925 0.0314983 0.0 
1.00001 -0.000133557 0.0 
0.970944 -0.0376398 0.0 
1.00013 -0.000259255 0.0 
0.992952 0.00216622 0.0 
0.620737 0.0269018 0.0 
1.00322 0.0022055 0.0 
0.0784334 -0.00379785 0.0 
0.440839 -0.0161917 0.0 
0.0263925 -0.00178763 0.0 
0.911063 -0.0563137 0.0 
0.835469 -0.0515043 0.0 
1 -0.000255043 0.0 
0.322962 -0.234656 0.0 
0.389837 0.0862433 0.0 
0.0579689 -0.000116655 0.0 
1.00605 -1.83583e-05 0.0 
1.00238 0.00982348 0.0 
0.00861377 -0.000228096 0.0 
1.00469 -0.000252255 0.0 
1.00569 -0.00071735 0.0 
1.0056 -0.000325158 0.0 
1.00504 7.48214e-05 0.0 
1.00626 -0.00103964 0.0 
0 0 0.0 
0.886276 0.0155345 0.0 
7.66577e-166 -1.53839e-166 0.0 
0.235968 0.00419202 0.0 
0.935575 -0.00380073 0.0 
0.482405 0.0676911 0.0 
0.029936 0.000226911 0.0 
0.395627 -0.00960811 0.0 
0.885358 -0.054773 0.0 
0.0151704 -0.028108 0.0 
1.00519 0.000256337 0.0 
0.60022 0.0142042 0.0 
0.950695 0.0324342 0.0 
0.790733 0.00185148 0.0 
0.390383 0.138471 0.0 
0.914856 -0.373181 0.0 
0.999999 0.00012663 0.0 
1.00428 -0.00248751 0.0 
0.9935 -0.00220995 0.0 
1.11707 0.0423232 0.0 
1.00725 0.000199471 0.0 
1.00554 0.00139995 0.0 
0.698234 0.00430996 0.0 
0.00731056 -0.00121586 0.0 
1.00643 -0.000897084 0.0 
0.904572 -0.0944473 0.0 
1.00431 -0.000334932 0.0 
0.999761 0.00185106 0.0 
1.0029 -0.000382895 0.0 
1.00477 6.61385e-05 0.0 
0.514194 0.264016 0.0 
1.00555 0 0.0 
0.883684 -0.0205591 0.0 
1.00435 0.00130882 0.0 
0.599477 -0.000443774 0.0 
1.00475 0.00126391 0.0 
0.0809083 0.0549558 0.0 
1.00547 0.000194607 0.0 
0.968345 0.00437281 0.0 
0.834605 0.291802 0.0 
1.00657 -9.43824e-05 0.0 
1.00655 -0.000253457 0.0 
0.306557 0.0725155 0.0 
1.00682 -0.000934356 0.0 
0.315165 0.044825 0.0 
0.96674 -0.00603529 0.0 
0.519002 -0.0464257 0.0 
0.0456243 -0.000203798 0.0 
1.01152 -0.0134508 0.0 
1.00762 -0.00192538 0.0 
1.0041 -0.000247932 0.0 
1.00006 0 0.0 
1.00332 0 0.0 
1.00577 0.000221661 0.0 
0.914682 0.030258 0.0 
1.00594 1.47822e-05 0.0 
0.656677 0.0110724 0.0 
0.612381 -0.431483 0.0 
1.00597 -0.000460255 0.0 
1.00441 0.000470357 0.0 
1.00621 0.00117345 0.0 
1.00124 -0.00226337 0.0 
0.948634 -0.051629 0.0 
0.0470349 -0.00797633 0.0 
0.125865 0.00834487 0.0 
0.888416 0.0582166 0.0 
1.00713 -0.000539599 0.0 
1.0038 -0.00173297 0.0 
0.974203 -0.0229334 0.0 
0.991241 0.00236437 0.0 
0.0312909 -0.0163482 0.0 
0.0732671 0.022679 0.0 
0.0133291 -4.01977e-05 0.0 
1.00097 -0.000852427 0.0 
1.00012 -0.000686779 0.0 
0.939971 -0.28357 0.0 
0.999478 0.000171839 0.0 
1.00698 -0.000345418 0.0 
0.157205 0.00865654 0.0 
1.00616 -0.00218332 0.0 
1.00464 -0.0034783 0.0 
1.00358 0.00444019 0.0 
0.999923 9.42765e-06 0.0 
0.447527 -0.0175854 0.0 
1.00029 0.000672615 0.0 
0.999855 0.000379457 0.0 
0.192039 0.0665815 0.0 