<VTKFile type="UnstructuredGrid" version="0.1" byte_order="LittleEndian">
  <UnstructuredGrid>
    <Piece NumberOfPoints="13713" NumberOfCells="27237">
      <Points>
        <DataArray type = "Float64" NumberOfComponents="3" format="ascii">
0 0 0.0 
14 0 0.0 
14 8 0.0 
0 8 0.0 
14 7.50976 0.0 
4.36971 3.99424 0.0 
13.0308 3.29431 0.0 
4.67168 4.0183 0.0 
0.382322 2.91093 0.0 
4.3429 3.97891 0.0 
4.22039 3.97489 0.0 
4.23244 4.06965 0.0 
4.07057 3.9639 0.0 
4.53824 7.43039 0.0 
5.24623 4.02873 0.0 
3.98741 4.04054 0.0 
3.98768 4.02653 0.0 
4.41245 4.03566 0.0 
4.52132 4.03761 0.0 
13.4653 0.705634 0.0 
4.26831 4.04358 0.0 
7.68805 3.99512 0.0 
4.40963 4.02886 0.0 
4.67405 4.10923 0.0 
4.52126 4.01099 0.0 
4.80484 4.03022 0.0 
4.61584 4.00791 0.0 
3.98272 4.09416 0.0 
12.1265 0 0.0 
4.48108 4.01724 0.0 
4.20537 3.96901 0.0 
4.61087 4.9696 0.0 
4.15865 3.96029 0.0 
4.13489 4.05432 0.0 
5.23572 4.10249 0.0 
4.48585 4.03471 0.0 
4.29876 3.97492 0.0 
4.42837 4.03709 0.0 
4.05635 4.04136 0.0 
0 3.36284 0.0 
4.93697 3.93496 0.0 
4.27632 3.98851 0.0 
13.6419 7.13944 0.0 
8.79181 7.69132 0.0 
4.08075 4.03591 0.0 
4.0273 4.01367 0.0 
4.04266 3.98582 0.0 
0 1.32421 0.0 
4.62342 4.01415 0.0 
4.31306 4.02997 0.0 
5.17517 4.1161 0.0 
4.00486 3.95977 0.0 
4.18896 4.05407 0.0 
5.14265 4.10289 0.0 
4.12607 4.05951 0.0 
4.18813 3.97953 0.0 
4.2483 4.03635 0.0 
4.0955 3.94899 0.0 
4.03444 4.04627 0.0 
4.00163 4.02959 0.0 
4.02005 3.99731 0.0 
5.23503 8 0.0 
4.30375 3.97965 0.0 
4.47109 4.03418 0.0 
4.44502 3.99612 0.0 
5.35828 4.09214 0.0 
4.22308 4.09104 0.0 
1.97176 2.13711 0.0 
6.70909 6.94059 0.0 
5.13675 4.00668 0.0 
4.49563 3.99671 0.0 
5.186 3.76901 0.0 
8.24404 4.2122 0.0 
4.14585 3.98608 0.0 
4.06521 4.00006 0.0 
6.95962 7.64891 0.0 
4.04672 4.0202 0.0 
4.94501 3.90266 0.0 
4.05425 4.02926 0.0 
4.54772 3.97659 0.0 
3.96947 4.02134 0.0 
0 1.05182 0.0 
7.16763 4.21956 0.0 
3.96297 3.96024 0.0 
4.21254 3.97074 0.0 
4.15932 4.03394 0.0 
4.23206 4.07447 0.0 
4.11692 3.94964 0.0 
6.5779 4.4103 0.0 
3.95785 3.95439 0.0 
3.87711 3.99789 0.0 
4.02972 4.04518 0.0 
4.00011 4.02449 0.0 
4.52405 4.00898 0.0 
3.97141 4.03046 0.0 
4.51041 3.93102 0.0 
3.97561 4.03322 0.0 
3.97816 4.02179 0.0 
4.04633 4.03304 0.0 
3.96767 4.02507 0.0 
4.53971 3.97638 0.0 
4.39609 3.99421 0.0 
3.63182 3.86562 0.0 
4.54225 3.97864 0.0 
12.8262 0.365959 0.0 
3.93138 3.94846 0.0 
4.54991 3.98013 0.0 
4.19279 3.98714 0.0 
9.44469 4.18177 0.0 
4.25924 3.99025 0.0 
4.73521 7.52615 0.0 
4.53737 3.98764 0.0 
4.33078 4.04078 0.0 
5.2844 3.91484 0.0 
4.21522 3.98887 0.0 
4.21259 3.97823 0.0 
4.06757 3.97375 0.0 
4.06171 3.97809 0.0 
4.1651 4.04324 0.0 
4.11581 4.05249 0.0 
4.04424 3.9838 0.0 
4.48182 4.01852 0.0 
4.04668 4.3467 0.0 
3.96181 4.02583 0.0 
4.43353 4.48141 0.0 
4.27027 4.04303 0.0 
4.10117 3.96057 0.0 
7.34687 4.75133 0.0 
4.99089 3.94999 0.0 
4.50714 4.02253 0.0 
6.37297 2.73989 0.0 
6.50541 6.65271 0.0 
4.0914 3.96216 0.0 
4.05115 4.02832 0.0 
5.20281 3.96498 0.0 
4.5494 4.0367 0.0 
4.38285 4.01331 0.0 
4.65935 4.04515 0.0 
12.6474 3.41509 0.0 
4.05312 3.99197 0.0 
13.7435 8 0.0 
4.11702 4.02719 0.0 
6.67367 0 0.0 
4.00932 4.01975 0.0 
6.82471 4.26136 0.0 
4.04221 3.9916 0.0 
5.25465 4.08082 0.0 
4.16195 4.02753 0.0 
4.34953 4.01689 0.0 
4.05489 4.11053 0.0 
13.0674 7.81526 0.0 
4.36886 4.0328 0.0 
4.50256 4.01295 0.0 
6.22735 7.50315 0.0 
4.00498 4.00961 0.0 
4.20388 4.03712 0.0 
4.05958 4.04239 0.0 
11.3713 7.83957 0.0 
8.95603 7.57132 0.0 
2.15974 5.93568 0.0 
4.0709 4.07076 0.0 
3.98122 4.01031 0.0 
11.5703 4.18823 0.0 
4.57278 4.01593 0.0 
4.17858 4.03055 0.0 
4.01726 4.00147 0.0 
7.97633 2.05223 0.0 
11.3934 4.07618 0.0 
8.40952 2.0809 0.0 
4.01703 7.79668 0.0 
4.54778 4.01674 0.0 
4.08927 3.9549 0.0 
4.22147 4.0961 0.0 
4.32637 4.10272 0.0 
5.45662 5.22808 0.0 
4.16804 3.98694 0.0 
4.09428 3.96323 0.0 
4.11266 3.9851 0.0 
4.26347 4.04218 0.0 
4.64859 3.98992 0.0 
4.18332 3.96996 0.0 
3.83246 4.33774 0.0 
10.4908 7.41058 0.0 
4.11011 3.98411 0.0 
12.0372 1.49526 0.0 
3.92863 5.87877 0.0 
4.53946 3.99845 0.0 
10.4619 3.53679 0.0 
4.16781 4.04329 0.0 
5.11537 3.91723 0.0 
4.26902 3.99091 0.0 
4.01958 4.10185 0.0 
2.12567 0 0.0 
6.38052 3.13775 0.0 
5.9291 5.15993 0.0 
4.41295 3.99718 0.0 
4.15029 4.01876 0.0 
9.4176 1.73395 0.0 
2.39654 0 0.0 
5.24537 4.1668 0.0 
4.20501 3.97964 0.0 
1.03284 2.15008 0.0 
4.05241 4.04442 0.0 
4.04616 3.97832 0.0 
8.35832 2.9685 0.0 
13.4699 7.45697 0.0 
3.99732 3.99732 0.0 
4.01229 3.97705 0.0 
4.06076 3.97364 0.0 
4.66522 4.0297 0.0 
4.07659 4.0352 0.0 
4.09808 4.03387 0.0 
4.05908 4.0108 0.0 
4.00577 3.97873 0.0 
4.46979 4.03982 0.0 
5.29572 4.05776 0.0 
4.94158 3.98327 0.0 
4.09467 4.03941 0.0 
7.62224 2.88267 0.0 
7.22419 0.703495 0.0 
9.31751 3.89901 0.0 
4.10553 3.98495 0.0 
4.32046 1.78584 0.0 
4.1403 4.03691 0.0 
5.36296 4.11451 0.0 
4.48036 4.00734 0.0 
5.8599 3.0813 0.0 
0 5.96431 0.0 
4.44087 4.02418 0.0 
4.07028 4.03432 0.0 
4.55037 4.00822 0.0 
4.41954 3.99458 0.0 
4.6103 3.91602 0.0 
4.16371 4.15591 0.0 
4.17274 4.10249 0.0 
4.24204 3.97935 0.0 
4.11575 4.03408 0.0 
4.52945 3.99713 0.0 
4.20274 4.07949 0.0 
0.762019 5.13086 0.0 
12.5015 1.14918 0.0 
4.09797 3.95385 0.0 
4.23052 4.09368 0.0 
4.20868 4.08388 0.0 
4.58861 4.06564 0.0 
3.99474 4.00051 0.0 
4.02424 4.00419 0.0 
4.21025 4.03415 0.0 
7.09863 3.25563 0.0 
4.72674 4.01396 0.0 
12.529 6.19703 0.0 
4.58482 4.50081 0.0 
4.52366 4.03052 0.0 
3.94265 3.95401 0.0 
4.09021 3.99341 0.0 
8.82235 8 0.0 
4.62533 3.98273 0.0 
4.51349 3.99717 0.0 
4.2355 4.09935 0.0 
4.69512 3.9114 0.0 
4.17803 3.98589 0.0 
4.18517 4.0453 0.0 
4.20997 0.181458 0.0 
4.06329 4.04721 0.0 
2.61514 0.506135 0.0 
4.18805 3.96826 0.0 
4.05731 4.02647 0.0 
7.7278 7.63087 0.0 
4.8857 3.98105 0.0 
0.417479 6.31883 0.0 
3.60004 3.72261 0.0 
4.90839 4.00372 0.0 
3.78519 4.26873 0.0 
4.00988 3.97037 0.0 
3.98977 4.04663 0.0 
3.99153 4.04254 0.0 
4.57553 4.01147 0.0 
4.06435 4.05591 0.0 
4.37568 4.03916 0.0 
4.18015 4.09124 0.0 
3.97296 4.00674 0.0 
11.3714 7.19716 0.0 
9.192 5.81999 0.0 
7.58471 5.24477 0.0 
3.53429 0 0.0 
4.67134 3.89044 0.0 
4.08953 4.02996 0.0 
11.016 2.69137 0.0 
2.30378 3.03595 0.0 
4.45074 4.02299 0.0 
4.00964 3.98933 0.0 
7.40997 8 0.0 
4.02321 3.97317 0.0 
2.86414 6.59491 0.0 
13.4868 6.98366 0.0 
9.99741 4.76078 0.0 
4.109 3.98604 0.0 
4.52686 4.01389 0.0 
4.37652 3.99496 0.0 
6.78993 2.13526 0.0 
1.21464 8 0.0 
0.846754 0.565038 0.0 
4.4185 3.97288 0.0 
4.53973 3.92792 0.0 
5.22012 4.00045 0.0 
4.05396 4.05241 0.0 
7.59973 7.22298 0.0 
12.6277 1.80732 0.0 
14 4.58149 0.0 
5.85073 0.410811 0.0 
13.0902 7.46595 0.0 
4.40456 3.99677 0.0 
4.02912 3.96643 0.0 
3.9878 3.95947 0.0 
4.24114 4.04469 0.0 
4.06982 4.08971 0.0 
4.51303 3.98607 0.0 
3.90674 3.97638 0.0 
3.96066 4.00697 0.0 
4.86182 5.24939 0.0 
4.96395 4.01931 0.0 
13.1661 5.68046 0.0 
13.7895 0 0.0 
4.10795 4.02897 0.0 
13.8261 5.946 0.0 
11.4357 2.10385 0.0 
6.26265 7.14539 0.0 
3.10914 5.59567 0.0 
4.00791 4.0033 0.0 
4.0088 3.9805 0.0 
9.75515 2.36072 0.0 
4.22293 4.24044 0.0 
4.00241 3.93804 0.0 
4.02947 3.97325 0.0 
4.9862 3.93198 0.0 
4.6454 3.91884 0.0 
4.01129 4.00596 0.0 
2.92109 4.80681 0.0 
3.31161 1.01031 0.0 
4.14091 4.04918 0.0 
3.92942 5.61591 0.0 
4.01755 3.97046 0.0 
4.52386 4.04096 0.0 
4.70958 7.08222 0.0 
11.1865 7.25481 0.0 
6.42419 4.18044 0.0 
6.40969 2.27914 0.0 
4.05373 4.0206 0.0 
4.0593 4.0207 0.0 
13.0519 3.93435 0.0 
4.2744 3.99114 0.0 
4.11868 3.97589 0.0 
4.15516 3.94365 0.0 
4.21078 3.98014 0.0 
4.01683 3.96357 0.0 
8.32777 8 0.0 
10.4928 5.29986 0.0 
4.6515 4.0246 0.0 
4.37143 3.994 0.0 
12.0185 5.47286 0.0 
4.96931 3.97465 0.0 
4.00437 3.9841 0.0 
4.55145 4.028 0.0 
4.0134 3.97877 0.0 
3.03193 6.72582 0.0 
5.06501 4.08414 0.0 
4.01079 3.9893 0.0 
4.19227 4.0555 0.0 
4.36156 4.08272 0.0 
4.23177 3.98957 0.0 
4.25188 4.04951 0.0 
2.49698 3.5985 0.0 
4.00773 4.00001 0.0 
14 3.6095 0.0 
4.21639 4.03358 0.0 
1.60222 4.99327 0.0 
4.53888 4.02662 0.0 
11.5792 7.84461 0.0 
0.551344 1.2516 0.0 
4.02575 3.96118 0.0 
4.54098 3.99916 0.0 
6.49849 5.21743 0.0 
4.76299 3.98341 0.0 
2.85037 3.42196 0.0 
3.88494 3.53296 0.0 
4.73899 4.07048 0.0 
4.00813 4.01182 0.0 
9.80608 3.0874 0.0 
11.8351 6.74811 0.0 
4.00414 3.99309 0.0 
4.1127 3.96242 0.0 
4.51221 4.06038 0.0 
4.15116 3.93854 0.0 
4.13176 4.07898 0.0 
10.2186 2.28825 0.0 
4.19879 4.03395 0.0 
4.7797 4.48794 0.0 
4.5139 4.03331 0.0 
4.06045 4.07837 0.0 
4.00279 3.99128 0.0 
4.05385 4.00986 0.0 
4.85809 4.01513 0.0 
10.2824 1.17531 0.0 
4.45457 2.45817 0.0 
6.32476 7.00417 0.0 
12.5996 5.63737 0.0 
4.64409 4.00438 0.0 
4.01397 4.00232 0.0 
1.48233 7.50025 0.0 
0.199855 7.7921 0.0 
4.68704 4.01621 0.0 
7.10579 4.68267 0.0 
4.20862 3.97868 0.0 
11.5808 3.97719 0.0 
8.48286 5.04597 0.0 
4.84909 4.03252 0.0 
3.58098 4.19597 0.0 
3.96806 4.01296 0.0 
11.0968 5.75296 0.0 
4.19567 4.09358 0.0 
5.01113 4.1034 0.0 
4.14507 4.17508 0.0 
5.25032 1.89548 0.0 
3.10089 2.25184 0.0 
4.5467 4.03146 0.0 
6.98728 5.60342 0.0 
4.00079 4.008 0.0 
0.384822 4.35157 0.0 
7.20657 5.05296 0.0 
3.05391 4.40989 0.0 
4.42888 4.0439 0.0 
4.53602 4.04076 0.0 
3.93321 4.28888 0.0 
4.53323 4.0151 0.0 
4.02204 4.01739 0.0 
0.198711 3.79297 0.0 
4.72583 0.194576 0.0 
4.05098 4.00075 0.0 
13.611 1.35207 0.0 
4.01425 3.98947 0.0 
5.30927 0.171783 0.0 
4.41037 3.99576 0.0 
3.77134 4.0081 0.0 
6.49425 0.938237 0.0 
4.73668 3.89169 0.0 
4.54384 3.99891 0.0 
3.96886 4.00175 0.0 
4.64006 3.99672 0.0 
4.36261 4.03666 0.0 
4.17182 4.0457 0.0 
3.69876 4.54693 0.0 
7.69275 3.0355 0.0 
4.82507 4.1106 0.0 
4.1025 4.03722 0.0 
13.1818 2.98063 0.0 
0.347962 1.57688 0.0 
4.04877 3.98924 0.0 
4.38888 3.9746 0.0 
1.06432 1.49826 0.0 
0.348252 3.38746 0.0 
7.78364 0 0.0 
6.32437 6.34013 0.0 
4.84809 6.69312 0.0 
5.62592 4.80931 0.0 
4.7383 3.87602 0.0 
4.35048 4.71289 0.0 
3.98477 3.78202 0.0 
1.64832 6.43608 0.0 
13.7604 0.5867 0.0 
4.68458 4.02213 0.0 
10.6153 7.62373 0.0 
4.16979 4.03888 0.0 
4.25841 3.96952 0.0 
4.03014 4.02376 0.0 
6.20333 4.3105 0.0 
4.0104 4.03331 0.0 
[...]
<PointData>
  <DataArray type = "Float64" Name="Vitesse" NumberOfComponents="3" format="ascii">
1 0 0.0 
1.00073 0 0.0 
0.999781 0 0.0 
1 0 0.0 
0.999764 -2.98905e-05 0.0 
0.0133014 -0.000230261 0.0 
0.999718 0.00111906 0.0 
0.20145 -0.0110231 0.0 
0.999969 -0.000133822 0.0 
0.245188 0.00716174 0.0 
0.300211 0.00544256 0.0 
0.699343 0.0179785 0.0 
0.874143 -0.0940459 0.0 
1.00514 0.000673695 0.0 
0.553511 -0.00750257 0.0 
0.774707 0.19772 0.0 
0.682899 0.189477 0.0 
0.0896973 -0.00975886 0.0 
0.218322 -0.0247526 0.0 
1.00087 0.000298326 0.0 
0.0377948 -0.00338934 0.0 
0.793576 0.000212837 0.0 
0.0134503 -0.00154185 0.0 
0.959801 -0.0454309 0.0 
0.00843376 -0.00147238 0.0 
0.372301 -0.01737 0.0 
0.118205 -0.00183616 0.0 
0.915284 0.149111 0.0 
1.00171 0 0.0 
0.00497354 -0.000593726 0.0 
0.433016 0.00356103 0.0 
1.01791 0.00405368 0.0 
0.68668 -0.0140988 0.0 
0.540304 0.0600198 0.0 
0.899376 -0.0161992 0.0 
0.154041 -0.0180066 0.0 
0.305861 0.00698404 0.0 
0.123677 -0.0136453 0.0 
0.690257 0.188418 0.0 
1 0 0.0 
0.805324 0.0188415 0.0 
0.0540925 0.00195724 0.0 
0.999764 -7.21992e-05 0.0 
1.0033 -0.000409548 0.0 
0.0842188 0.0183543 0.0 
0 0 0.0 
0.0499805 -0.0114596 0.0 
1 0 0.0 
0.132539 -0.00996786 0.0 
0 0 0.0 
0.943923 -0.0161439 0.0 
0.950379 -0.262722 0.0 
0.341012 0.0147217 0.0 
0.903091 -0.0172618 0.0 
0.76302 0.10482 0.0 
0.195961 0.00476724 0.0 
0 0 0.0 
1.03229 -0.0968451 0.0 
0.925787 0.316221 0.0 
0.720669 0.309632 0.0 
0 0 0.0 
1.00549 0 0.0 
0.222088 0.00593371 0.0 
0.133903 -0.0158135 0.0 
0.0184542 0.000903019 0.0 
0.858311 -0.0132245 0.0 
1.05395 0.05846 0.0 
1.00009 -0.00159177 0.0 
1.0059 -0.000669985 0.0 
0.482922 -0.00180721 0.0 
0.0269228 0.000830399 0.0 
1.00989 0.00696683 0.0 
0.991314 -0.00736717 0.0 
0.02555 0.0019369 0.0 
0 0 0.0 
1.00534 -0.000252543 0.0 
0 0 0.0 
0.948985 0.0167971 0.0 
5.49615e-06 1.63092e-06 0.0 
0.348363 0.0149387 0.0 
0.725838 0.0676254 0.0 
1 0 0.0 
1.00409 -0.00407404 0.0 
0.859752 -0.137225 0.0 
0.391579 0.00483055 0.0 
0 0 0.0 
0.806442 0.0264062 0.0 
0.980963 -0.0675311 0.0 
1.00802 -0.00391138 0.0 
0.874384 -0.124679 0.0 
0.900152 -0.00926719 0.0 
0.913706 0.323972 0.0 
0.660591 0.311263 0.0 
0.00241601 -0.000411898 0.0 
0.750735 0.107272 0.0 
0.879258 0.0138223 0.0 
0.751365 0.1316 0.0 
0.686733 0.105102 0.0 
0.433223 0.133087 0.0 
0.744328 0.0771211 0.0 
0.346792 0.0123932 0.0 
0.0253628 0.00133111 0.0 
0.971975 -0.0110225 0.0 
0.316166 0.0118313 0.0 
1.00123 0.000207555 0.0 
0.891896 -0.081657 0.0 
0.299741 0.0139565 0.0 
0.0347192 0.00124927 0.0 
0.975721 -0.0125345 0.0 
0.0152833 0.0014713 0.0 
1.00528 0.000477908 0.0 
0.181473 0.00499433 0.0 
0.062627 -0.00590652 0.0 
0.887603 0.00958246 0.0 
0.0165333 0.000807649 0.0 
0.228157 0.00544388 0.0 
0.542673 -0.0427687 0.0 
0.379277 -0.0267127 0.0 
3.35515e-05 1.28313e-07 0.0 
0.584098 0.0840188 0.0 
0.173853 -0.0175026 0.0 
0.0131138 -0.00210146 0.0 
1.01936 0.0566892 0.0 
0.766257 0.0643959 0.0 
1.03837 0.00955908 0.0 
0.0292786 -0.00228793 0.0 
0.826218 -0.0549959 0.0 
1.00794 -0.00372847 0.0 
0.707128 0.0165535 0.0 
0.0631006 -0.00939383 0.0 
1.00759 0.000801822 0.0 
1.00636 -0.000767145 0.0 
0.82374 -0.0629511 0.0 
8.24605e-06 1.66111e-06 0.0 
0.638782 0.00967375 0.0 
0.232492 -0.0301111 0.0 
-4.77295e-259 1.06476e-259 0.0 
0.397044 -0.0359492 0.0 
0.999475 0.00146069 0.0 
0 0 0.0 
0.999801 0 0.0 
0 0 0.0 
1.00531 0 0.0 
0.529517 0.308126 0.0 
1.00729 -0.00413724 0.0 
-5.94374e-98 2.77907e-99 0.0 
0.808206 -0.0155969 0.0 
0 0 0.0 
0 0 0.0 
1.01802 0.182633 0.0 
0.999876 -3.25617e-05 0.0 
1.26106e-05 -1.56289e-06 0.0 
0.00273949 -0.000561301 0.0 
1.00577 -0.00013082 0.0 
0.0696381 0.0584299 0.0 
-1.536e-168 -1.6955e-170 0.0 
0.691631 0.181214 0.0 
1.00051 -0.000103249 0.0 
1.00308 -0.000570316 0.0 
1.00077 0.00264195 0.0 
1.04794 0.241509 0.0 
0.605178 0.033411 0.0 
0.994563 0.00070186 0.0 
0.073795 -0.0240309 0.0 
0 0 0.0 
0 0 0.0 
1.00574 0.00115006 0.0 
0.992757 0.00203874 0.0 
1.00542 0.00140307 0.0 
1.00423 0.000303645 0.0 
0.0606581 -0.0120548 0.0 
0.979683 -0.0923685 0.0 
1.08815 0.0648881 0.0 
1.04754 0.00392681 0.0 
1.01129 -0.00187342 0.0 
0.0207582 0.00179076 0.0 
0.783044 -0.0541927 0.0 
0.0289557 0.00116802 0.0 
1.98513e-05 -1.34256e-06 0.0 
0.24805 0.0192215 0.0 
0.422707 0.00238934 0.0 
0.98785 0.0412936 0.0 
1.00118 -0.000580187 0.0 
0.0580918 0.000348435 0.0 
1.00149 0.00115984 0.0 
1.00648 0.00507312 0.0 
0.0126076 -0.00114538 0.0 
1.00485 0.00610724 0.0 
6.90491e-05 -4.80208e-06 0.0 
0.887818 0.0121796 0.0 
0.00744612 0.000657321 0.0 
0.964433 0.182306 0.0 
1.00092 0 0.0 
1.0084 0.000989635 0.0 
1.00952 -0.00277253 0.0 
-1.14948e-44 -7.88911e-46 0.0 
0 0 0.0 
1.00438 0.00155459 0.0 
1.00119 0 0.0 
1.00377 -0.0129775 0.0 
0.196964 0.00473352 0.0 
0.999982 -0.000609439 0.0 
0.830027 0.241923 0.0 
0.482655 -0.0567254 0.0 
1.00589 0.0021377 0.0 
0.999799 -6.00697e-05 0.0 
0.278208 -0.329435 0.0 
0.930509 -0.339003 0.0 
0.590889 -0.0557814 0.0 
0.257532 -0.022907 0.0 
0.0908824 0.0152354 0.0 
0 0 0.0 
0 0 0.0 
0.895628 -0.385119 0.0 
0.197044 -0.0211352 0.0 
0.692295 -0.012807 0.0 
0.470876 0.0105356 0.0 
0.137777 0.0207161 0.0 
1.00654 0.00161802 0.0 
1.00543 0.000133066 0.0 
0.933307 0.00138662 0.0 
0.0304512 0.00140416 0.0 
1.00511 -0.00294341 0.0 
0 0 0.0 
0.931808 -0.0124067 0.0 
0 0 0.0 
1.0089 0.00106794 0.0 
1 0 0.0 
0.0100982 -0.00105828 0.0 
0.125611 0.0338226 0.0 
0.0196615 -0.00479212 0.0 
0.0304206 0.000803585 0.0 
0.950872 0.0268563 0.0 
1.09083 0.0998952 0.0 
1.12173 0.112979 0.0 
0.211586 0.00492416 0.0 
0 0 0.0 
0.0320316 0.000781612 0.0 
0.952136 0.0617994 0.0 
0.999927 0.000701608 0.0 
1.00127 0.000744256 0.0 
0.969628 -0.0814802 0.0 
1.0654 0.055275 0.0 
1.00156 0.062942 0.0 
0.605751 -0.0504553 0.0 
0.279697 -0.174003 0.0 
0 0 0.0 
1e-307 1e-307 0.0 
1.00738 0.00161005 0.0 
0.245502 -0.00596857 0.0 
0.999611 -0.000373886 0.0 
1.0332 -0.000870285 0.0 
0.146271 -0.0185603 0.0 
0.879268 -0.0954634 0.0 
-8.96096e-169 -8.58114e-171 0.0 
1.00323 0 0.0 
0.298518 0.0272677 0.0 
0.0267201 0.00175842 0.0 
1.09191 0.0563022 0.0 
0.950629 0.0282623 0.0 
0.0519301 0.0012326 0.0 
0.0438894 0.000546277 0.0 
1.00365 -0.000244501 0.0 
0.817056 0.210924 0.0 
1.00141 -0.000600274 0.0 
0.460439 0.00166802 0.0 
1.34332e-153 2.97764e-154 0.0 
1.00464 -0.000399673 0.0 
0.461215 0.0137326 0.0 
1.00003 0.000333916 0.0 
0.981834 -0.0149097 0.0 
0.380316 0.00110377 0.0 
0.978254 0.0376577 0.0 
0.963632 -0.325161 0.0 
0.804987 0.205602 0.0 
0.787568 0.217579 0.0 
0.0579436 -0.0182613 0.0 
0.977836 0.252156 0.0 
0.0923313 -0.00902765 0.0 
1.09589 0.10214 0.0 
0.675419 -0.014006 0.0 
1.0004 -0.000511323 0.0 
1.00251 -0.00349746 0.0 
1.00646 -0.00377771 0.0 
1.00267 0 0.0 
1.01038 0.0240426 0.0 
0 0 0.0 
1.00211 0.00327552 0.0 
0.998499 -0.00206461 0.0 
0.0113749 -0.0014709 0.0 
0.360835 -0.149495 0.0 
1.00487 0 0.0 
0.950186 -0.259111 0.0 
1.00239 0.00247813 0.0 
0.999758 -9.73171e-05 0.0 
0.998755 -0.00467327 0.0 
0.000977073 2.77296e-05 0.0 
0.0262483 -0.00441668 0.0 
0.00803822 0.000177876 0.0 
1.00663 0.000469871 0.0 
1.00041 0 0.0 
1.00012 -0.000179944 0.0 
0.359424 0.00824211 0.0 
0.897967 0.0187471 0.0 
0.513083 0.00101998 0.0 
0.962462 0.273199 0.0 
1.00487 -0.000823788 0.0 
1.00093 0.00109135 0.0 
0.999613 0.000265791 0.0 
1.0052 -0.000171898 0.0 
0.999847 -8.86107e-05 0.0 
9.4797e-06 7.41738e-07 0.0 
1.02103 -0.245064 0.0 
0.886906 -0.217352 0.0 
0.0405306 -0.00327848 0.0 
1.045 0.211608 0.0 
0.192539 0.00528899 0.0 
0.882498 -0.0376309 0.0 
0.747515 -0.0125922 0.0 
1.01377 0.00158372 0.0 
0.42144 -0.00701572 0.0 
0.9995 -0.00011208 0.0 
1.00081 0 0.0 
0 0 0.0 
0.999637 -2.94498e-05 0.0 
1.0018 0.00208174 0.0 
1.00599 -0.000280859 0.0 
1.0023 0.00583421 0.0 
0 0 0.0 
0.878162 -0.367444 0.0 
1.00428 0.00243405 0.0 
1.07288 0.0539822 0.0 
0.965836 -0.189425 0.0 
0.899032 -0.208554 0.0 
0.823256 0.0172024 0.0 
0.928097 0.0291834 0.0 
0 0 0.0 
0.997486 0.0067624 0.0 
1.0024 -0.00153242 0.0 
0.306169 0.0281564 0.0 
1.00724 0.00665469 0.0 
0.994743 -0.302391 0.0 
0.259477 -0.028056 0.0 
1.00571 0.000964367 0.0 
1.00054 -0.0005251 0.0 
0.993371 -0.00482804 0.0 
1.00706 0.000322696 0.0 
0 0 0.0 
0 0 0.0 
0.999303 0.000759222 0.0 
0.00876322 0.0011407 0.0 
0.313426 -0.00134883 0.0 
0.979342 -0.0464783 0.0 
0.187536 0.00518723 0.0 
1.00625 -0.28087 0.0 
1.00386 0 0.0 
0.999315 -0.00279919 0.0 
0.209343 -0.019609 0.0 
0.0182052 0.00131611 0.0 
0.999212 -0.000641663 0.0 
0.531972 0.0131185 0.0 
0.804893 -0.413443 0.0 
0.148303 -0.0237519 0.0 
0.892296 -0.319028 0.0 
1.00274 0.00230689 0.0 
0.819651 -0.0214783 0.0 
0.312522 -0.112684 0.0 
0.380582 0.0156175 0.0 
0.82249 -0.0217466 0.0 
0.0122075 0.0011802 0.0 
0.165234 -0.00419287 0.0 
0.996449 -0.00109712 0.0 
0 0 0.0 
0.999802 0.000536248 0.0 
1e-307 1e-307 0.0 
0.999567 0.00176902 0.0 
0.124916 -0.0180166 0.0 
1.00039 -8.86457e-05 0.0 
1.00004 -0.000232351 0.0 
1.03645 -0.253072 0.0 
6.52428e-06 4.41885e-07 0.0 
1.00814 -0.00279642 0.0 
0.382754 0.0176293 0.0 
0.995683 -0.00344304 0.0 
0.999332 -0.0272089 0.0 
0.694191 -0.0396586 0.0 
0.0804915 0.0456752 0.0 
1.00473 0.00345318 0.0 
0.999995 -0.000561993 0.0 
0.253352 -0.175441 0.0 
0.740052 -0.0362122 0.0 
0.507108 -0.0406897 0.0 
1.02905 -0.0558459 0.0 
1.07154 0.153653 0.0 
1.00363 0.00252519 0.0 
0 0 0.0 
1.0258 -0.00792714 0.0 
0.165047 -0.0199877 0.0 
1.03174 0.235744 0.0 
0.499806 -0.352416 0.0 
0 0 0.0 
0.350009 -0.00586264 0.0 
1.00335 0.00115133 0.0 
1.00751 -0.00477389 0.0 
1.00611 -0.000390665 0.0 
0.999383 -0.000305572 0.0 
0.162693 0.00410182 0.0 
0 0 0.0 
1.00059 0.000416163 0.0 
1.00001 2.2062e-05 0.0 
0.21116 -0.00851256 0.0 
1.00812 -0.00389188 0.0 
0.218104 0.00526365 0.0 
0.99447 0.00238221 0.0 
1.00478 -0.00555764 0.0 
0.413718 -0.016586 0.0 
0.977409 0.015748 0.0 
0.713739 0.0220985 0.0 
0.99957 -0.00153273 0.0 
1.09551 0.0880425 0.0 
0.910943 -0.0221078 0.0 
1.07389 0.100402 0.0 
1.00678 -0.00137218 0.0 
1.00124 -0.00399783 0.0 
0.176311 -0.0248644 0.0 
1.00707 -0.00253128 0.0 
0.179891 0.176246 0.0 
0.99996 0.000204868 0.0 
1.00718 -0.00362277 0.0 
0.993648 0.00668449 0.0 
0.212615 -0.0202972 0.0 
0.267038 -0.0298494 0.0 
0.993476 0.0600177 0.0 
0.0378896 -0.00627583 0.0 
-3.52726e-247 -1.50774e-247 0.0 
0.999992 2.9817e-05 0.0 
1.0043 -0.000217377 0.0 
-4.04998e-193 3.1261e-194 0.0 
1.00069 0.000516023 0.0 
0.154186 -0.0292755 0.0 
1.00484 -0.000128774 0.0 
0.0101557 0.000827924 0.0 
0.944664 0.00107786 0.0 
1.00562 -8.11082e-05 0.0 
0.9965 0.0234712 0.0 
0.0063756 -0.000154783 0.0 
0.706806 -0.0457143 0.0 
0.190976 0.0129826 0.0 
0.0435021 -0.00358558 0.0 
0.0853049 0.00400541 0.0 
0.997349 0.0238151 0.0 
1.0068 0.00175493 0.0 
0.9453 -0.0336101 0.0 
3.55887e-12 6.706e-13 0.0 
0.999978 0.00105425 0.0 
1.00001 -0.000167983 0.0 
-7.81644e-51 -2.44927e-52 0.0 
0.326311 0.00758708 0.0 
1.00011 -0.000547916 0.0 
0.999969 -3.75629e-05 0.0 
1.00512 0 0.0 
1.00693 -0.000910836 0.0 
1.00657 0.00120635 0.0 
1.01131 -0.00430274 0.0 
1.01555 0.0209518 0.0 
1.02517 0.0132952 0.0 
0.996494 -0.0642999 0.0 
1.00057 0.0014348 0.0 
1.00077 0.000218299 0.0 
0.229997 -0.0145915 0.0 
1.00108 -0.00034832 0.0 
0 0 0.0 
0.407825 0.00599014 0.0 
0.181084 0.0624835 0.0 
1.00782 -0.00478028 0.0 
0.785276 0.343004 0.0 
4.9487e-131 3.69495e-132 0.0 
1.00205 -0.00094857 0.0 
0.190272 -0.0245591 0.0 
0.0697172 0.00333536 0.0 
0.771966 -0.0282177 0.0 
0.50482 0.0140706 0.0 
1.00268 -0.0067004 0.0 
0.98087 0.00547465 0.0 
0.0328658 0.000751927 0.0 
1.00536 -1.7416e-05 0.0 
0.0130652 0.00163815 0.0 
0 0 0.0 
0.330006 0.0054052 0.0 
1.00532 1.97822e-05 0.0 
0.106578 0.000828737 0.0 
1.0061 1.06601e-05 0.0 
1.0046 0.000728562 0.0 
0.954706 0.0859678 0.0 
0.513055 -0.0373358 0.0 
1.00554 0.00195454 0.0 
0.543856 0.0100458 0.0 
1.00593 0.00239327 0.0 
1.00535 2.97892e-05 0.0 
1.0002 -0.000568333 0.0 
0.999374 -8.21792e-06 0.0 
1.00434 -0.0012356 0.0 
0.131056 0.0381838 0.0 
2.43096e-06 -6.9693e-07 0.0 
1.01718 0.017188 0.0 
1.00462 0.003115 0.0 
0.984492 0.0488872 0.0 
0.00683197 0.00040355 0.0 
1.01052 0.0195006 0.0 
0.00785792 0.000977094 0.0 
0.803353 0.319352 0.0 
0.0344416 0.01302 0.0 
0.999352 -0.000118563 0.0 
0.235167 -0.000777632 0.0 
3.44199e-05 -4.77747e-06 0.0 
0 0 0.0 
0.875658 -0.077004 0.0 
0.254234 -0.0494083 0.0 
1.00604 0.00228437 0.0 
0.820558 0.0693767 0.0 
0.212727 0.00580912 0.0 
1.01879 0.220768 0.0 
0.00710935 -3.78247e-05 0.0 
0.693002 0.00107062 0.0 
1.00011 0.000799486 0.0 
7.06313e-06 -8.7924e-07 0.0 
1.00396 0.00112879 0.0 
0.00986446 -0.000814074 0.0 
0.604918 -0.0473044 0.0 
0.0145785 0.00127503 0.0 
1.0038 -0.00154265 0.0 
0.962133 -0.283756 0.0 
0.867258 -0.0505998 0.0 
0.92462 -0.305631 0.0 
0.997326 -0.000774082 0.0 
0.99936 0.000720439 0.0 
1.00647 0.000487344 0.0 
0 0 0.0 
1.00002 -0.000182088 0.0 
0 0 0.0 
0.0446693 -0.00451449 0.0 
1.00411 0.00479654 0.0 
1.0008 0.00300706 0.0 
0.0584053 0.0203774 0.0 
1.00657 -0.0025097 0.0 
0.932009 0.0636213 0.0 
1.00024 0.000355023 0.0 
0.228169 0.022788 0.0 
1.0019 0.000525102 0.0 
1.00233 -0.00067729 0.0 
1.01014 0.00403528 0.0 
0.755526 0.0258803 0.0 
1.01824 0.0099367 0.0 
1.01008 -0.00332753 0.0 
1.00845 0.00528135 0.0 
0.641503 0.0147603 0.0 
0.705329 0.0908982 0.0 
0.998462 -0.00143612 0.0 
1.00213 0.00326555 0.0 
0.999796 -1.70288e-05 0.0 
0.921255 0.00434524 0.0 
0.343719 0.0104807 0.0 
0.019068 -0.0021832 0.0 
1.00007 0 0.0 
1.00416 0.00150931 0.0 
1.00887 0.00240685 0.0 
-1.23723e-47 -1.17763e-48 0.0 
1.00003 0.00030343 0.0 
1.0036 0.00293954 0.0 
1.00102 -0.00793303 0.0 
1.00674 -0.000301304 0.0 
1.00291 0.000376419 0.0 
0.999959 0.00219387 0.0 
1.00604 -0.00133189 0.0 
1.00835 -0.00737151 0.0 
1.0051 -0.00012646 0.0 
0.970295 0.0981144 0.0 
1 0.000128364 0.0 
1.00829 0.00158629 0.0 
1.00064 0.00032127 0.0 
1.00006 -0.000439695 0.0 
0.384903 -0.010987 0.0 
0.789363 -0.0523115 0.0 
0.959945 -0.0248362 0.0 
1.00219 0.000768075 0.0 
1.02732 -0.100836 0.0 
1.0015 0 0.0 
1.12175 0.082346 0.0 
0.579204 0.0718672 0.0 
0 0 0.0 
0.99917 2.97574e-05 0.0 
0.52518 0.0345631 0.0 
0.0279604 0.000774849 0.0 
0.0127201 -0.00160088 0.0 
1.00214 0.000328037 0.0 
0.167086 0.0106372 0.0 
0.0159151 3.30989e-05 0.0 
1.00448 -0.00555626 0.0 
0.20409 0.017372 0.0 
0.0607427 -0.00301268 0.0 
1.00686 -0.00350617 0.0 
1.0005 0.206049 0.0 
0.332599 -0.00592735 0.0 
1.00389 0.000243937 0.0 
0 0 0.0 
0.284745 -0.0411174 0.0 
1.03078 -0.0258005 0.0 
0.148524 -0.00223176 0.0 
0.101292 -0.0164827 0.0 
0.856224 0.011753 0.0 
0.256546 0.0226107 0.0 
0.869632 -0.0165721 0.0 
0.862871 0.0305123 0.0 
0.016302 -0.00250347 0.0 
0.0663651 0.0013707 0.0 
0.030789 -0.0168687 0.0 
0.00154282 0.000123568 0.0 
-1.49063e-96 -4.46744e-97 0.0 
0.532521 0.00239338 0.0 
0.915071 -0.0052879 0.0 
0.844745 -0.0235887 0.0 
0.999742 0.000478731 0.0 
0.999531 0.000656479 0.0 
1.00131 0.00537608 0.0 
1.00712 0.00120309 0.0 
1.00626 -0.0451067 0.0 
0.138097 0.00421139 0.0 
0.994817 -0.0162996 0.0 
0.70503 -0.00502241 0.0 
1.00497 -0.0023434 0.0 
0.999934 0.00181857 0.0 
0.998908 0.00446461 0.0 
1.00044 0.000804964 0.0 
0.452854 -0.30723 0.0 
1.00171 -0.000495054 0.0 
1.00189 0.00016596 0.0 
1.00115 0.00170366 0.0 
0.000142543 -1.0768e-05 0.0 
1.00543 -0.000167002 0.0 
1.00462 -0.00271334 0.0 
0.271441 -0.0225439 0.0 
0.942502 -0.0378624 0.0 
0.999603 -8.56367e-05 0.0 
0.999972 0.00060842 0.0 
1.00694 0.00103624 0.0 
0.999493 0.000298685 0.0 
0.962457 -0.056499 0.0 
5.41558e-07 -1.0743e-08 0.0 
0.609779 0.00348554 0.0 
0.03765 0.00179075 0.0 
0.999039 -0.000106699 0.0 
1 -0.000941283 0.0 
0.238415 -0.0247211 0.0 
1 0.000231646 0.0 
0.22427 -0.005788 0.0 
1.00937 -0.00406492 0.0 
0.999189 -0.00243833 0.0 
1.00284 -0.00320248 0.0 
0.955979 0.0282537 0.0 
1.00158 0.00351325 0.0 
1.00705 -0.00145484 0.0 
1.00611 0.00099987 0.0 
1.02117 0.000756162 0.0 
0.990541 -0.0034116 0.0 
0.00646786 -0.000669171 0.0 
0.054587 0.00201711 0.0 
1.01348 -0.00573678 0.0 
1.03052 0.012888 0.0 
0.00731709 -0.00125966 0.0 
0.0207205 0.0018797 0.0 
1.00465 0.00204945 0.0 
1.00001 -0.000257713 0.0 
0.961878 -0.0446407 0.0 
0.883179 0.241601 0.0 
0.862133 0.0314229 0.0 
0.0186442 0.00144417 0.0 
1.00747 0.00131043 0.0 
1.00867 -0.000130977 0.0 
0.213479 0.00640381 0.0 
1.00169 0.00169368 0.0 
0.813735 0.0142336 0.0 
0.0110878 0.000686667 0.0 
1.00847 0.00191801 0.0 
1.00554 0.00207448 0.0 
0.403041 0.00504934 0.0 
0.0429161 -0.00222746 0.0 
0.432303 0.00804565 0.0 
1.04501e-06 -2.79704e-07 0.0 
0.999435 0.000382795 0.0 
0.998604 -0.00331454 0.0 
1.00536 7.25587e-05 0.0 
0.999451 -0.000793083 0.0 
1.00521 -0.000325683 0.0 
0.99954 -8.41118e-05 0.0 
0.999745 -0.000842667 0.0 
0.182124 0.000330021 0.0 
1.00334 0.0027027 0.0 
0.0308977 0.00103327 0.0 
1.00055 0.000720239 0.0 
0.999748 -0.00101684 0.0 
0.38961 0.0054471 0.0 
1.00134 -0.000433411 0.0 
0 0 0.0 
0.130209 -0.0176686 0.0 
0.723927 -0.0308796 0.0 
0.918453 -0.00440976 0.0 
0.999847 -0.000342161 0.0 
1.00551 0.0016301 0.0 
0.894354 0.0141913 0.0 
1.00165 0.000226441 0.0 
1.00007 -0.000684466 0.0 
0.0513188 -0.00110894 0.0 
1.00091 -0.000473447 0.0 
0.927595 -0.164041 0.0 
1.00103 0 0.0 
0.816701 0.127065 0.0 
0.999818 -7.34176e-05 0.0 
0.274602 0.00455056 0.0 
1.12581 0.0858229 0.0 
0.418408 0.00205865 0.0 
1.00078 0.00124897 0.0 
0.999673 -0.000101735 0.0 
0.434956 -0.00149487 0.0 
1.0078 -0.000519511 0.0 
1.00128 -0.00655842 0.0 
0.815604 -0.0265733 0.0 
1.00509 -0.000922613 0.0 
0.317181 0.0433654 0.0 
1.00408 -0.00242635 0.0 
0.970013 0.0445996 0.0 
1.00089 0.0168145 0.0 
1.00395 0.00198879 0.0 
0.968821 -0.00763319 0.0 
0.999682 -0.000242799 0.0 
1.00604 -0.00160677 0.0 
-5.81769e-90 6.99606e-91 0.0 
1.01194 -0.00352852 0.0 
0.00963372 0.000775798 0.0 
0.334576 -0.0013931 0.0 
0.354921 -0.00195715 0.0 
1.00343 0.000796978 0.0 
0.0365847 -0.00716682 0.0 
1.00616 0.000764971 0.0 
0.788236 0.141314 0.0 
0.999504 -0.00177156 0.0 
1.00561 -0.000441602 0.0 
1.00475 0.00105568 0.0 
0.999977 8.09645e-06 0.0 
1.0067 0.00108862 0.0 
1.00007 -0.000220909 0.0 
0.347087 0.000994914 0.0 
1.00602 -0.00399058 0.0 
1.00214 0.000807076 0.0 
0.794786 -0.00108314 0.0 
0.999832 -0.000280561 0.0 
0.997698 0.00434448 0.0 
0.01218 -0.00048971 0.0 
1.00001 -0.000132214 0.0 
0.407101 -0.0154483 0.0 
0.0121039 -0.00197827 0.0 
1.04022 -0.00258152 0.0 
0.913649 -0.0159181 0.0 
1.0032 0.00217033 0.0 
1 3.78229e-05 0.0 
0.83514 0.11778 0.0 
1.00472 0.00402472 0.0 
0.97385 -0.0111174 0.0 
0.836359 -0.0516452 0.0 
1 -0.00025201 0.0 
0.322938 -0.234535 0.0 
0.39024 0.0868246 0.0 
0.179779 -0.0198133 0.0 
0.920327 -0.0251522 0.0 
1.00266 0.0100456 0.0 
1.05465e-05 7.79027e-07 0.0 
0.999499 -5.07862e-05 0.0 
1.01192 0.00171368 0.0 
0.999584 0.000973514 0.0 
1.07174 0.0777719 0.0 
0.0282411 9.00963e-05 0.0 
0 0 0.0 
0 0 0.0 
0.970575 -0.0277635 0.0 
0.236595 0.0041513 0.0 
0.93959 -0.00150469 0.0 
0.0223379 0.0013787 0.0 
1.00639 0.00145586 0.0 
1.05564 0.0986635 0.0 
1.10683 0.0979456 0.0 
0.885986 -0.0548524 0.0 
0.0151901 -0.0278618 0.0 
1.00223 0.000634468 0.0 
0.0732675 -0.0289778 0.0 
0.892485 -0.0516836 0.0 
-5.83389e-303 1.16125e-304 0.0 
1 0 0.0 
0.914666 -0.372969 0.0 
0.140752 -0.0177856 0.0 
0.999284 -0.000371604 0.0 
1.00681 0.0012726 0.0 
1.00391 0.00383752 0.0 
0.00220694 -0.000616151 0.0 
1.00017 0.00170342 0.0 
0.836273 -0.00401269 0.0 
0.999796 -0.000801671 0.0 
0.999716 0.00503638 0.0 
0.417701 0.0274826 0.0 
1.00073 -0.000510402 0.0 
0.999766 0.00184793 0.0 
1.00078 0 0.0 
1.00157 0.000108276 0.0 
0.756514 0.0119944 0.0 
1.0052 0 0.0 
0.883982 -0.0205705 0.0 
0.995373 -0.00733951 0.0 
0.997538 0.0123128 0.0 
1.00044 0.00101518 0.0 
0.645129 -0.0271471 0.0 
4.60651e-125 4.61049e-127 0.0 
1.11713 0.0439629 0.0 
0.167532 0.0508479 0.0 
1.00045 -0.00129461 0.0 
1.00021 -0.000705823 0.0 
0.000217815 -2.26762e-06 0.0 
0.0496884 0.0019764 0.0 
1.0049 -0.00357483 0.0 
7.65495e-08 -4.99482e-09 0.0 
0.999483 0.000790113 0.0 
0.999938 -0.000128959 0.0 
0.061155 -0.0132149 0.0 
1.01206 -0.0135762 0.0 
0.999481 0.000465778 0.0 
0.082718 0.0058909 0.0 
0.06709 0.00251803 0.0 