<VTKFile type="UnstructuredGrid" version="0.1" byte_order="LittleEndian">
  <UnstructuredGrid>
    <Piece NumberOfPoints="13555" NumberOfCells="26921">
      <Points>
        <DataArray type = "Float64" NumberOfComponents="3" format="ascii">
0 0 0.0 
14 0 0.0 
14 8 0.0 
0 8 0.0 
0.383893 2.91152 0.0 
4.44566 3.99793 0.0 
11.014 2.68908 0.0 
4.46704 4.01899 0.0 
7.16062 3.035 0.0 
4.10206 3.96084 0.0 
10.5103 5.31673 0.0 
4.07057 3.9639 0.0 
4.53824 7.43039 0.0 
10.2825 1.1779 0.0 
3.98741 4.04054 0.0 
3.98768 4.02653 0.0 
4.38334 4.0315 0.0 
4.22492 3.96395 0.0 
8.4574 2.322 0.0 
4.23813 4.04356 0.0 
4.51881 4.031 0.0 
4.47538 4.03375 0.0 
4.67405 4.10923 0.0 
4.1789 4.0308 0.0 
4.80484 4.03022 0.0 
4.61584 4.00791 0.0 
12.1265 0 0.0 
4.00923 4.01305 0.0 
13.8261 5.94601 0.0 
4.30241 3.97961 0.0 
4.6207 4.09144 0.0 
4.13489 4.05432 0.0 
5.2525 4.08103 0.0 
4.22773 4.04303 0.0 
4.45409 2.45801 0.0 
4.56283 3.99857 0.0 
3.93276 3.9602 0.0 
0 3.36284 0.0 
4.93697 3.93496 0.0 
4.00988 3.97037 0.0 
4.19186 4.05532 0.0 
10.1734 4.4195 0.0 
4.0273 4.01367 0.0 
6.98691 2.68677 0.0 
4.96907 4.10551 0.0 
4.62342 4.01415 0.0 
4.55171 4.00358 0.0 
5.17517 4.1161 0.0 
14 1.00091 0.0 
10.4466 3.51765 0.0 
4.53576 4.02646 0.0 
4.12607 4.05951 0.0 
3.90873 3.96021 0.0 
4.2483 4.03635 0.0 
4.0955 3.94899 0.0 
4.03444 4.04627 0.0 
4.00163 4.02959 0.0 
4.02005 3.99731 0.0 
5.23503 8 0.0 
7.58425 5.24486 0.0 
4.44111 3.99525 0.0 
1.94587 1.61999 0.0 
5.35828 4.09214 0.0 
4.88569 3.98105 0.0 
2.61514 0.506135 0.0 
4.051 4.00074 0.0 
8.48285 5.046 0.0 
4.35473 4.03787 0.0 
3.5968 3.72309 0.0 
4.59584 4.51136 0.0 
4.90839 4.00372 0.0 
4.15825 4.03374 0.0 
4.04672 4.0202 0.0 
4.94501 3.90266 0.0 
4.51233 3.98653 0.0 
4.54772 3.97659 0.0 
3.96947 4.02134 0.0 
4.21303 3.97045 0.0 
5.28835 3.91341 0.0 
3.96297 3.96024 0.0 
4.09803 3.98339 0.0 
6.52781 1.51786 0.0 
4.08334 4.07129 0.0 
4.11692 3.94964 0.0 
3.10914 5.59567 0.0 
3.95785 3.95439 0.0 
4.09065 3.95069 0.0 
4.02972 4.04518 0.0 
4.19 4.04968 0.0 
3.97141 4.03046 0.0 
4.63883 4.00936 0.0 
3.97561 4.03322 0.0 
3.97816 4.02179 0.0 
4.04633 4.03304 0.0 
3.96767 4.02507 0.0 
4.53971 3.97638 0.0 
5.81584 4.04525 0.0 
4.00964 3.98933 0.0 
4.54225 3.97864 0.0 
3.1002 2.25282 0.0 
5.25032 1.89548 0.0 
4.54991 3.98013 0.0 
4.98619 3.93198 0.0 
4.73521 7.52615 0.0 
4.07141 4.09096 0.0 
4.52549 3.98021 0.0 
3.31161 1.01031 0.0 
2.66716 0 0.0 
11.1865 7.25481 0.0 
4.19816 4.04525 0.0 
4.15125 3.98562 0.0 
7.01384 4.49853 0.0 
4.0891 3.98536 0.0 
4.01425 3.98947 0.0 
4.52511 4.00761 0.0 
11.7264 4.38306 0.0 
5.2927 4.05862 0.0 
4.1403 4.03691 0.0 
4.47099 4.06165 0.0 
6.37297 2.73989 0.0 
6.50541 6.65271 0.0 
4.0914 3.96216 0.0 
3.69178 4.54428 0.0 
5.20281 3.96498 0.0 
12.6381 7.48703 0.0 
3.9023 6.84053 0.0 
4.65935 4.04515 0.0 
4.53801 4.03291 0.0 
4.05312 3.99197 0.0 
13.7435 8 0.0 
4.11702 4.02719 0.0 
6.67367 0 0.0 
4.00932 4.01975 0.0 
6.82471 4.26136 0.0 
4.20354 4.03712 0.0 
4.51905 3.99788 0.0 
4.50997 3.99787 0.0 
4.2904 3.92587 0.0 
4.45618 4.00979 0.0 
4.62544 3.98261 0.0 
13.1818 2.98063 0.0 
13.1055 3.48759 0.0 
6.22735 7.50315 0.0 
11.8702 0.212102 0.0 
7.83547 2.82767 0.0 
4.1152 4.03957 0.0 
9.69483 7.24214 0.0 
8.95603 7.57132 0.0 
4.22222 4.09636 0.0 
3.98122 4.01031 0.0 
3.9678 4.04964 0.0 
9.65423 4.26818 0.0 
3.14583 3.72752 0.0 
4.16208 4.04651 0.0 
4.00773 4.00001 0.0 
4.25006 4.04561 0.0 
4.5872 3.08815 0.0 
4.54778 4.01674 0.0 
4.08927 3.9549 0.0 
10.151 2.94085 0.0 
4.51291 3.9987 0.0 
3.90895 4.08231 0.0 
3.22012 3.32395 0.0 
4.09428 3.96323 0.0 
4.02074 4.0027 0.0 
3.84668 3.90466 0.0 
4.18332 3.96996 0.0 
8.67201 2.39205 0.0 
4.76297 3.98343 0.0 
8.91842 0.967714 0.0 
12.0372 1.49526 0.0 
1.77674 6.77593 0.0 
13.1592 5.25121 0.0 
1.48229 7.49995 0.0 
4.05399 4.05242 0.0 
5.11537 3.91723 0.0 
4.71442 4.01913 0.0 
3.8827 3.53346 0.0 
6.38052 3.13775 0.0 
5.9291 5.15993 0.0 
4.00414 3.99309 0.0 
1.21548 8 0.0 
9.4176 1.73395 0.0 
4.21339 4.02989 0.0 
5.24537 4.1668 0.0 
4.231 4.04427 0.0 
4.46368 4.04155 0.0 
13.5337 6.38237 0.0 
4.06062 3.97377 0.0 
8.35832 2.9685 0.0 
13.4699 7.45697 0.0 
12.9422 5.39238 0.0 
4.01229 3.97705 0.0 
6.98728 5.60342 0.0 
9.95535 3.59842 0.0 
4.84915 4.03246 0.0 
4.09808 4.03387 0.0 
4.01461 4.01826 0.0 
4.00577 3.97873 0.0 
4.51002 3.99841 0.0 
9.70352 1.23095 0.0 
4.00241 3.93803 0.0 
7.62224 2.88267 0.0 
7.22419 0.703495 0.0 
4.24843 4.04441 0.0 
4.11271 4.04576 0.0 
3.92985 4.29364 0.0 
4.07449 3.94324 0.0 
4.35534 4.71888 0.0 
4.23467 4.04555 0.0 
5.8599 3.0813 0.0 
4.00287 4.12038 0.0 
4.34251 3.99226 0.0 
6.21308 5.48605 0.0 
13.2903 7.45798 0.0 
5.97375 5.37063 0.0 
4.6103 3.91602 0.0 
4.55263 4.00322 0.0 
4.02321 3.97317 0.0 
4.11575 4.03408 0.0 
4.84809 6.69312 0.0 
4.20274 4.07949 0.0 
6.16852 4.52048 0.0 
12.5015 1.14918 0.0 
4.09797 3.95385 0.0 
4.23052 4.09368 0.0 
4.20868 4.08388 0.0 
4.7966 4.50292 0.0 
4.00163 4.00499 0.0 
4.21025 4.03415 0.0 
4.07302 3.98385 0.0 
13.6945 7.80328 0.0 
10.6153 7.62373 0.0 
1.1914 3.57636 0.0 
3.98799 3.95955 0.0 
4.96928 3.97464 0.0 
8.82235 8 0.0 
4.23781 4.09881 0.0 
4.92704 4.10133 0.0 
4.69512 3.9114 0.0 
7.6398 2.6807 0.0 
4.1283 4.05439 0.0 
4.06329 4.04721 0.0 
4.74535 3.98025 0.0 
4.18805 3.96826 0.0 
4.16892 4.04593 0.0 
4.03688 3.99254 0.0 
4.26037 4.04317 0.0 
0.417479 6.31883 0.0 
4.03631 3.98654 0.0 
4.02702 3.98728 0.0 
4.90953 3.97583 0.0 
4.29623 3.98441 0.0 
3.98977 4.04663 0.0 
3.99153 4.04254 0.0 
4.57553 4.01147 0.0 
3.45021 4.08816 0.0 
1.33311 1.459 0.0 
4.10984 4.03331 0.0 
3.97296 4.00674 0.0 
11.3714 7.19716 0.0 
9.192 5.81999 0.0 
11.081 3.75524 0.0 
3.53429 0 0.0 
4.67134 3.89044 0.0 
4.08953 4.02996 0.0 
4.14091 4.04918 0.0 
2.30378 3.03595 0.0 
6.64238 0.26606 0.0 
10.0323 4.54408 0.0 
7.40997 8 0.0 
6.95088 7.06331 0.0 
2.86414 6.59491 0.0 
6.21697 4.34916 0.0 
9.9204 3.84008 0.0 
4.50253 4.0126 0.0 
2.89315 5.49872 0.0 
6.85323 7.27439 0.0 
6.78993 2.13526 0.0 
4.06148 4.07927 0.0 
0.846754 0.565038 0.0 
4.38688 4.07949 0.0 
4.09728 4.03704 0.0 
4.1583 4.02897 0.0 
4.02904 3.9664 0.0 
7.59973 7.22298 0.0 
12.6277 1.80732 0.0 
14 4.58149 0.0 
5.85073 0.410811 0.0 
13.0902 7.46595 0.0 
4.29298 3.99148 0.0 
9.54961 6.99546 0.0 
4.73456 4.01964 0.0 
4.30033 6.55304 0.0 
3.58117 4.19886 0.0 
4.51087 4.40026 0.0 
4.51225 4.03393 0.0 
3.96066 4.00697 0.0 
4.55143 4.02796 0.0 
4.96395 4.01931 0.0 
13.1661 5.68046 0.0 
13.7895 0 0.0 
4.10795 4.02897 0.0 
11.2339 4.91097 0.0 
11.4357 2.10385 0.0 
12.2741 7.78702 0.0 
12.1568 4.12069 0.0 
4.00791 4.0033 0.0 
4.0088 3.9805 0.0 
9.75515 2.36072 0.0 
0.348252 3.38744 0.0 
4.44629 3.99102 0.0 
4.02947 3.97325 0.0 
4.0564 4.03079 0.0 
4.6454 3.91884 0.0 
4.01129 4.00596 0.0 
4.13651 4.04345 0.0 
5.0604 3.97687 0.0 
2.37857 1.61641 0.0 
6.11891 4.72307 0.0 
4.01755 3.97046 0.0 
4.52386 4.04096 0.0 
0.195775 6.68759 0.0 
5.99012 4.04484 0.0 
6.42419 4.18044 0.0 
5.16077 4.06746 0.0 
4.05373 4.0206 0.0 
4.0593 4.0207 0.0 
0.845864 1.62601 0.0 
4.54092 4.00701 0.0 
4.11868 3.97589 0.0 
4.15516 3.94365 0.0 
4.01695 3.96353 0.0 
11.8107 0.651755 0.0 
8.32777 8 0.0 
4.03796 3.98521 0.0 
4.38721 4.03163 0.0 
7.99609 6.1415 0.0 
4.08296 4.00762 0.0 
5.06461 4.08435 0.0 
4.00437 3.9841 0.0 
4.47929 4.02137 0.0 
4.0134 3.97877 0.0 
3.03193 6.72582 0.0 
4.5555 3.99978 0.0 
4.01079 3.9893 0.0 
14 3.84943 0.0 
4.36156 4.08272 0.0 
2.48952 3.59766 0.0 
2.41658 7.83801 0.0 
4.49125 4.00699 0.0 
4.20001 4.03326 0.0 
3.7716 4.00818 0.0 
4.21639 4.03358 0.0 
3.92685 3.99783 0.0 
3.89766 4.03669 0.0 
11.5792 7.84461 0.0 
0.551344 1.2516 0.0 
4.02575 3.96118 0.0 
6.73412 3.55133 0.0 
6.49849 5.21743 0.0 
4.52617 3.99766 0.0 
2.77497 7.51281 0.0 
5.18267 3.9437 0.0 
4.41876 3.99552 0.0 
4.35176 4.03658 0.0 
4.16311 4.04375 0.0 
11.8351 6.74811 0.0 
4.0108 3.9997 0.0 
4.1127 3.96242 0.0 
4.02586 3.98561 0.0 
4.15116 3.93854 0.0 
4.13176 4.07898 0.0 
10.2186 2.28825 0.0 
3.84357 4.30669 0.0 
4.85957 4.01386 0.0 
7.34292 5.19319 0.0 
4.00279 3.99128 0.0 
4.05385 4.00986 0.0 
4.01845 4.01173 0.0 
3.94901 3.70022 0.0 
5.63968 3.98709 0.0 
6.32476 7.00417 0.0 
12.5996 5.63737 0.0 
4.64409 4.00438 0.0 
4.88498 4.06106 0.0 
4.1813 4.21373 0.0 
4.33919 4.03834 0.0 
4.93652 4.08387 0.0 
12.4997 4.90769 0.0 
4.15318 4.79504 0.0 
4.20802 4.04697 0.0 
4.20219 3.99824 0.0 
4.00487 4.00528 0.0 
4.5671 3.97265 0.0 
3.96806 4.01296 0.0 
11.0968 5.75296 0.0 
4.55406 3.99831 0.0 
5.56386 4.0321 0.0 
5.4272 4.66874 0.0 
4.02597 4.19151 0.0 
4.53313 4.00673 0.0 
4.5467 4.03146 0.0 
4.00353 3.9915 0.0 
4.05629 4.08806 0.0 
4.53595 4.04072 0.0 
7.20657 5.05296 0.0 
3.05391 4.40989 0.0 
9.90278 1.9712 0.0 
13.167 3.69177 0.0 
4.53295 4.01509 0.0 
9.65721 5.90637 0.0 
5.30644 0.173765 0.0 
0.198711 3.79297 0.0 
4.72583 0.194576 0.0 
3.90471 2.31823 0.0 
0.898692 6.20579 0.0 
7.19396 5.74117 0.0 
4.30141 4.04146 0.0 
0.262648 3.59525 0.0 
4.01037 4.03326 0.0 
4.73668 3.89169 0.0 
4.04877 3.98924 0.0 
3.96886 4.00175 0.0 
4.64006 3.99672 0.0 
11.4878 0.917753 0.0 
4.54396 3.89411 0.0 
11.6886 4.91265 0.0 
4.82507 4.1106 0.0 
4.10171 3.98704 0.0 
7.56457 6.83703 0.0 
0.347962 1.57688 0.0 
4.03783 4.02637 0.0 
4.04684 4.09627 0.0 
7.00233 6.47926 0.0 
7.78364 0 0.0 
6.32437 6.34013 0.0 
7.12026 6.70684 0.0 
5.62592 4.80931 0.0 
4.7383 3.87602 0.0 
4.48411 4.0171 0.0 
10.532 2.82163 0.0 
1.64832 6.43608 0.0 
13.7604 0.5867 0.0 
2.66751 5.16506 0.0 
11.2705 7.61787 0.0 
4.05828 4.04836 0.0 
4.25841 3.96952 0.0 
4.03014 4.02376 0.0 
4.08463 4.01547 0.0 
4.61916 3.98898 0.0 
5.35655 3.74722 0.0 
8.68027 3.809 0.0 
4.18491 4.14211 0.0 
4.05815 3.98351 0.0 
4.09178 4.02837 0.0 
3.99816 4.00816 0.0 
3.88654 4.04982 0.0 
4.10353 3.98419 0.0 
3.85377 3.84164 0.0 
4.18633 3.94335 0.0 
4.04584 4.02961 0.0 
4.53245 3.99929 0.0 
7.14156 0.150746 0.0 
13.642 4.55453 0.0 
4.21367 3.97319 0.0 
1.47689 3.96699 0.0 
4.2081 4.10648 0.0 
11.7854 3.47368 0.0 
8.64936 2.61471 0.0 
9.46048 3.26649 0.0 
3.88393 4.01429 0.0 
7.06289 0.290476 0.0 
4.6711 5.32717 0.0 
4.47293 4.03853 0.0 
[...]
<PointData>
  <DataArray type = "Float64" Name="Vitesse" NumberOfComponents="3" format="ascii">
1 0 0.0 
1.00409 0 0.0 
1.00218 0 0.0 
1 0 0.0 
0.999969 -0.000136863 0.0 
-1.70718e-47 -2.09018e-49 0.0 
1.00659 0.00104115 0.0 
0.002264 -4.67693e-05 0.0 
1.00752 0.000239459 0.0 
0.8159 -0.0524134 0.0 
1.00632 -0.00112141 0.0 
0.874949 -0.0942536 0.0 
1.00523 0.000724424 0.0 
1.00586 0.000327497 0.0 
0.774333 0.197505 0.0 
0.682405 0.18914 0.0 
0.00717187 -0.000866083 0.0 
0.532541 0.00207147 0.0 
1.0069 0.000249497 0.0 
1.59924e-06 -1.21545e-07 0.0 
0.145847 -0.0182187 0.0 
0.132751 -0.0159879 0.0 
0.95922 -0.0453397 0.0 
0 0 0.0 
0.371416 -0.0172914 0.0 
0.11778 -0.00181137 0.0 
1.00496 0 0.0 
0.12331 0.0730539 0.0 
1.00271 -0.00236197 0.0 
0.222075 0.00599255 0.0 
0.86643 -0.0505066 0.0 
0.539045 0.0595027 0.0 
0.808411 -0.0157318 0.0 
1.38917e-07 -2.74633e-09 0.0 
1.00748 -0.00496471 0.0 
0.0342805 0.0129733 0.0 
0.875537 -0.0771955 0.0 
1 0 0.0 
0.804124 0.0187128 0.0 
0.963827 -0.325253 0.0 
0.373001 0.0148594 0.0 
1.00836 -0.000889721 0.0 
0 0 0.0 
1.00741 0.000160914 0.0 
0.919678 -0.0251008 0.0 
0.132063 -0.00993032 0.0 
0.00298554 -0.00061159 0.0 
0.943067 -0.0160532 0.0 
1.0042 0.000606491 0.0 
1.00804 0.0010378 0.0 
0.120137 -0.0171476 0.0 
0.761856 0.1044 0.0 
0.892331 -0.051822 0.0 
0 0 0.0 
1.03223 -0.0965598 0.0 
0.924819 0.316404 0.0 
0.720067 0.309265 0.0 
0 0 0.0 
1.00568 0 0.0 
1.00722 -0.00133045 0.0 
0.0271436 5.16618e-05 0.0 
1.00045 -0.00131264 0.0 
0.857221 -0.0128889 0.0 
0.460058 0.0137013 0.0 
1.00143 -0.000611945 0.0 
0 0 0.0 
1.00705 -0.00123609 0.0 
0.0481589 -0.00497138 0.0 
0.981857 -0.0147886 0.0 
1.03225 -0.000902915 0.0 
0.379272 0.00108551 0.0 
0 0 0.0 
0 0 0.0 
0.948215 0.0166372 0.0 
0.184564 0.00503482 0.0 
0.347436 0.0150334 0.0 
0.725441 0.0673374 0.0 
0.397858 0.00417386 0.0 
0.891355 0.0094936 0.0 
0.859697 -0.137456 0.0 
0.0814106 0.00333581 0.0 
1.00655 -0.000312376 0.0 
1.05916 0.225294 0.0 
0.980696 -0.0674759 0.0 
1.00228 0.00587313 0.0 
0.874312 -0.124894 0.0 
1.02735 -0.100519 0.0 
0.912777 0.324045 0.0 
0.191541 0.00620304 0.0 
0.750307 0.107088 0.0 
0.148041 -0.00221873 0.0 
0.751146 0.131254 0.0 
0.686292 0.104782 0.0 
0.430852 0.133313 0.0 
0.743944 0.0768466 0.0 
0.345946 0.0126025 0.0 
0.695859 -0.00527718 0.0 
0.360792 -0.149505 0.0 
0.31527 0.0120195 0.0 
1.00125 -0.00404756 0.0 
1.00692 -0.00166925 0.0 
0.298829 0.0139989 0.0 
0.822053 0.0170709 0.0 
1.0054 0.000525733 0.0 
1.04694 0.208845 0.0 
0.283383 0.00827498 0.0 
1.00244 -0.00157288 0.0 
1.00152 0 0.0 
1.00438 -0.000362498 0.0 
0.0384449 0.00100313 0.0 
0.0411461 0.00173318 0.0 
1.00756 -0.00230806 0.0 
0.0169082 -0.000131924 0.0 
0.154121 -0.0292432 0.0 
2.1744e-06 -4.42973e-07 0.0 
1.00598 -0.00163889 0.0 
0.695629 -0.0128236 0.0 
0 0 0.0 
0.50353 -0.0368805 0.0 
1.00782 0.000150908 0.0 
1.00677 -0.000326726 0.0 
0.823421 -0.0621856 0.0 
0.996981 0.0236114 0.0 
0.637476 0.00937882 0.0 
1.00345 -0.000375338 0.0 
1.00471 0.00209017 0.0 
0.39611 -0.0358732 0.0 
0.18242 -0.0236066 0.0 
0 0 0.0 
1.00243 0 0.0 
0 0 0.0 
1.00579 0 0.0 
0.528948 0.307648 0.0 
1.00593 -0.00238217 0.0 
0 0 0.0 
0.0169562 0.000221341 0.0 
0.0137974 0.000194271 0.0 
0.994602 -0.0164368 0.0 
0 0 0.0 
0.299217 0.0273099 0.0 
1.00435 0.00186498 0.0 
1.0073 0.00145731 0.0 
1.00613 -8.64453e-06 0.0 
1.00507 7.47469e-05 0.0 
1.00718 0.000252389 0.0 
-4.39262e-170 -8.48207e-171 0.0 
1.00504 -0.000306194 0.0 
1.00524 -0.000167883 0.0 
1.08812 0.0642667 0.0 
0.604848 0.0330298 0.0 
0.819549 0.126804 0.0 
0.997075 -0.000721181 0.0 
0.990583 -0.00333745 0.0 
0.126035 0.00833499 0.0 
0 0 0.0 
0.0696108 -0.00250914 0.0 
1.01343 -0.00627254 0.0 
0.0602314 -0.0120508 0.0 
0.979705 -0.0919438 0.0 
1.00701 0.000754062 0.0 
8.68777e-05 1.12569e-05 0.0 
0.903694 0.063055 0.0 
0.995235 -0.00721971 0.0 
0.782451 -0.0533954 0.0 
0 0 0.0 
0.942396 -0.0379803 0.0 
0.422417 0.00227382 0.0 
1.00691 0.000284081 0.0 
0.381675 0.0176116 0.0 
1.00606 0.000130224 0.0 
1.00534 0.000588863 0.0 
1.00078 0.00125615 0.0 
1.00439 -0.00296906 0.0 
1.00059 0.000418957 0.0 
0.962087 0.273824 0.0 
0.886593 0.0120248 0.0 
0.246042 -0.0108619 0.0 
0.999194 -0.0272758 0.0 
1.00834 0.00025826 0.0 
1.00938 -0.00219694 0.0 
0.253366 -0.175519 0.0 
1.00042 0 0.0 
1.00639 0.000319415 0.0 
-2.79063e-264 -7.10941e-266 0.0 
1.00335 -0.0128256 0.0 
0.0229636 -0.000242804 0.0 
0.212485 -0.0219818 0.0 
1.00292 -0.0016661 0.0 
0.586741 -0.0571996 0.0 
1.00722 0.000312344 0.0 
1.00275 -0.000505501 0.0 
1.00444 -0.00257704 0.0 
0.930648 -0.339106 0.0 
1.00751 -0.0012204 0.0 
1.00818 0.00107439 0.0 
0.412472 -0.0165598 0.0 
0 0 0.0 
0.2998 0.144324 0.0 
0.895793 -0.385323 0.0 
0.00594378 0.000154721 0.0 
1.00604 0.000266645 0.0 
0.965823 -0.189598 0.0 
1.00722 0.000235649 0.0 
1.00605 -6.46751e-05 0.0 
0.0396321 -8.40584e-05 0.0 
0.315642 0.0440684 0.0 
0.992909 0.0588346 0.0 
1.0806 -0.134642 0.0 
1.02484 0.0130341 0.0 
0.0570538 -0.000549997 0.0 
1.00882 0.000461906 0.0 
0.95994 0.148567 0.0 
0.0288203 0.0023139 0.0 
1.00866 -0.00143232 0.0 
1.00292 -0.000482355 0.0 
1.00922 -0.00158392 0.0 
0.950327 0.0267911 0.0 
0.00256436 -0.000491161 0.0 
0.950247 -0.259086 0.0 
0 0 0.0 
1.00666 0.0013401 0.0 
0.951257 0.0615419 0.0 
1.00859 -0.00369459 0.0 
1.00501 0.000465622 0.0 
0.969438 -0.0810987 0.0 
1.06462 0.0553088 0.0 
1.00082 0.062742 0.0 
1.02464 -0.00756957 0.0 
-2.6009e-85 -3.28159e-85 0.0 
0 0 0.0 
0.078847 -0.00404547 0.0 
1.00249 -0.000190218 0.0 
1.00454 -0.000167154 0.0 
0.999497 -5.8775e-05 0.0 
0.887129 -0.218385 0.0 
0.530694 0.0130405 0.0 
1.00521 0 0.0 
1.08755 0.0541506 0.0 
0.905945 -0.0266261 0.0 
0.950073 0.0281583 0.0 
1.0072 0.000203086 0.0 
0.578084 0.0713032 0.0 
0.816566 0.211706 0.0 
0.398134 0.0198236 0.0 
0.46008 0.00137248 0.0 
0.0894399 0.00162122 0.0 
0 0 0.0 
0.0184566 0.000378798 0.0 
1.00003 0.000335245 0.0 
0.0551485 -0.0047938 0.0 
0.0832897 -0.0130672 0.0 
0.503567 0.0140129 0.0 
0.135393 0.00386005 0.0 
0.804572 0.205435 0.0 
0.787145 0.21738 0.0 
0.0576407 -0.0181946 0.0 
0.980895 0.00544971 0.0 
1.00021 -0.000714571 0.0 
3.01914e-286 1.95038e-287 0.0 
0.675165 -0.0143391 0.0 
1.00431 -0.000403534 0.0 
1.00628 -0.000806635 0.0 
0.980946 0.00265105 0.0 
1.00273 0 0.0 
1.01002 0.023924 0.0 
0 0 0.0 
0.305588 0.0276312 0.0 
0.998497 -0.00208817 0.0 
1.00583 -7.00406e-05 0.0 
1.00826 -0.00124691 0.0 
1.00574 0 0.0 
1.00622 -0.000282956 0.0 
1.00239 0.00250644 0.0 
1.00781 -0.00366122 0.0 
0.942425 0.00107401 0.0 
8.94366e-05 -1.15028e-05 0.0 
1.00129 0.00540491 0.0 
1.00612 -0.000188189 0.0 
1.00709 -8.60486e-05 0.0 
1.03352 0.233649 0.0 
1.00013 -0.000181912 0.0 
0.765794 -0.0283106 0.0 
0 0 0.0 
0 0 0.0 
1.02133 -0.245395 0.0 
1.00587 -0.000285083 0.0 
1.0052 0.000796464 0.0 
1.00758 -0.00538019 0.0 
1.00553 -0.000247 0.0 
1.00309 -0.000450667 0.0 
0.0126455 0.00108571 0.0 
1.00521 -0.000400959 0.0 
0.266186 -0.010977 0.0 
1.00608 0.00238432 0.0 
0.9776 0.0158014 0.0 
1.04365 0.000421747 0.0 
0.169348 -0.0201197 0.0 
0.747269 -0.0128671 0.0 
0.147175 -0.0236767 0.0 
0.420497 -0.00712748 0.0 
1.00383 -0.00237616 0.0 
1.00421 0 0.0 
0 0 0.0 
1.00686 -0.00146505 0.0 
1.00598 0.000836559 0.0 
1.00365 -0.000137524 0.0 
0.924048 -0.00315229 0.0 
0 0 0.0 
0.878306 -0.367584 0.0 
1.00675 0.000522654 0.0 
0.999969 -3.9706e-05 0.0 
0.0928722 0.00271341 0.0 
0.89902 -0.208393 0.0 
0.089495 0.0183727 0.0 
0.927501 0.0290876 0.0 
0 0 0.0 
0.0802721 0.00125311 0.0 
0.543753 0.0100476 0.0 
1.00082 -0.00177687 0.0 
1.00922 -0.00329709 0.0 
0.994877 -0.302466 0.0 
0.258681 -0.0280084 0.0 
1 0.000129195 0.0 
0.709674 -0.00576654 0.0 
0.993669 -0.00393973 0.0 
0.730351 -0.0166714 0.0 
0 0 0.0 
0 0 0.0 
1.00006 -0.000444703 0.0 
0.00664434 -0.00117247 0.0 
0.313548 -0.00235864 0.0 
0.979012 -0.0465211 0.0 
1.00666 -0.280645 0.0 
1.00516 0.000231449 0.0 
1.00541 0 0.0 
0.130286 -0.0174826 0.0 
0.012299 -0.000542853 0.0 
1.00639 -0.000766724 0.0 
0 0 0.0 
0.820156 -0.0214202 0.0 
0.80504 -0.413649 0.0 
0.028947 -0.0044574 0.0 
0.892412 -0.319097 0.0 
1.00275 0.00233736 0.0 
-6.26534e-159 -2.02236e-161 0.0 
0.312468 -0.112651 0.0 
0.957705 0.000940801 0.0 
0.82171 -0.0216663 0.0 
0.996495 -0.00110237 0.0 
1.00166 0.000228984 0.0 
5.34334e-276 1.89541e-277 0.0 
0 0 0.0 
0.944503 0.00100805 0.0 
0 0 0.0 
0.844838 -0.0236241 0.0 
0.884608 0.0251275 0.0 
1.00404 -8.05123e-05 0.0 
1.00004 -0.000234751 0.0 
1.03645 -0.25316 0.0 
1.00817 0.000676908 0.0 
1.00811 -0.00183589 0.0 
0.0219092 -0.000349586 0.0 
1.00221 0.000778909 0.0 
0.754762 0.0115992 0.0 
0.0151004 0.00130886 0.0 
0.0266647 -0.00196885 0.0 
0.0216574 0.00350905 0.0 
1.0043 -0.000725343 0.0 
0 0 0.0 
0.739257 -0.036123 0.0 
0.25149 -0.0480303 0.0 
1.0288 -0.055896 0.0 
1.071 0.15362 0.0 
1.00659 0.00063104 0.0 
0.984995 0.0443711 0.0 
0.348025 -0.00496096 0.0 
1.00734 -0.00140405 0.0 
0.499872 -0.35258 0.0 
0 0 0.0 
0 0 0.0 
0.996136 -0.0454719 0.0 
0.624865 0.00219316 0.0 
1.00649 -0.000117328 0.0 
1.00456 -0.00202031 0.0 
0.162196 0.00410149 0.0 
0.644289 -0.0270967 0.0 
1.07317 0.0737573 0.0 
0.0338502 -0.00340893 0.0 
0.81526 -0.026562 0.0 
1.005 -0.00272974 0.0 
1.01707 0.0172897 0.0 
0.0889249 0.00147125 0.0 
-6.04429e-199 -4.30648e-200 0.0 
0 0 0.0 
0.407692 0.0266763 0.0 
0.7134 0.0217966 0.0 
1.00563 -0.00112365 0.0 
0.0194188 -0.000338672 0.0 
0.626602 -0.00580208 0.0 
1.01306 -0.0055158 0.0 
1.00476 0.107053 0.0 
-8.29327e-156 1.58558e-156 0.0 
0.175632 -0.0248389 0.0 
0.452906 -0.307354 0.0 
1.02163 0.218364 0.0 
0.265816 -0.0297717 0.0 
1.00744 -0.00163265 0.0 
0.993596 0.00667978 0.0 
1.00645 0.000468259 0.0 
0.979862 0.00345 0.0 
0.0371723 -0.00629766 0.0 
1.00601 -0.00079456 0.0 
1.00507 -0.000159207 0.0 
0.999992 2.88214e-05 0.0 
1.00445 -0.000240232 0.0 
1.00447 -0.00549511 0.0 
1.00012 0.000785771 0.0 
1.00723 -0.00107973 0.0 
0.0370775 -0.0039553 0.0 
0.999977 6.7161e-06 0.0 
0.784063 0.342734 0.0 
0.996065 0.0233331 0.0 
0 0 0.0 
0.706642 -0.0460315 0.0 
0.190439 0.0129672 0.0 
1.00535 0.000324095 0.0 
1.03029 0.0128099 0.0 
1.00656 -0.00183852 0.0 
0.944809 -0.033562 0.0 
-1.44102e-192 -4.34304e-194 0.0 
1.00611 -0.00044529 0.0 
1.00001 -0.000169692 0.0 
0.169565 0.0584314 0.0 
1.00468 0.203898 0.0 
1.00666 -0.000569183 0.0 
1.00592 0 0.0 
1.00726 -0.000431184 0.0 
1.00641 -0.00046524 0.0 
1.01112 -0.0039062 0.0 
1.01519 0.0208027 0.0 
0.00727084 -0.00113984 0.0 
1.00683 0.000917178 0.0 
1.00057 0.00144207 0.0 
1.00429 0.000328897 0.0 
0.999696 0.00505251 0.0 
1.00424 -0.000186741 0.0 
0.881683 0.242285 0.0 
0.407278 0.00608202 0.0 
0.181785 0.0616822 0.0 
0 0 0.0 
0.228744 0.0228716 0.0 
1.0082 0.00487188 0.0 
0.976506 0.00116987 0.0 
1.1063 0.0927028 0.0 
0.127052 -0.0114809 0.0 
0 0 0.0 
0.262992 0.187615 0.0 
0.897535 0.0309732 0.0 
0.0570066 -0.000613843 0.0 
0.961753 -0.0446998 0.0 
0.937697 -0.0301284 0.0 
0.21935 0.0692949 0.0 
0.000538499 2.4219e-05 0.0 
1.0059 -1.92402e-05 0.0 
1.00689 -0.00475645 0.0 
0.337464 0.00480096 0.0 
0.999119 0.00042269 0.0 
1.12217 0.0815473 0.0 
1.00805 0.00177526 0.0 
1.00705 0.000303162 0.0 
1.0077 0.000398811 0.0 
0.893605 0.00302694 0.0 
1.00591 -4.14607e-05 0.0 
1.01329 0.00362289 0.0 
0.183974 -0.0202341 0.0 
1.00445 -0.00132878 0.0 
0.833959 0.117389 0.0 
0.942642 0.267777 0.0 
0.0646154 -0.00212101 0.0 
1.00705 0.00056299 0.0 
0.380133 0.0113602 0.0 
0.0015868 -0.00045332 0.0 
0.00345139 -0.000711478 0.0 
0.802694 0.319076 0.0 
1.00442 0 0.0 
0.78754 -5.59124e-05 0.0 
1.00724 0.000363259 0.0 
0.300405 0.126268 0.0 
1.03066 -0.0260077 0.0 
1.00104 -0.00132996 0.0 
1.00079 0 0.0 
0.0142947 0.000964189 0.0 
0.902559 -0.0039304 0.0 
0.019818 -0.0024985 0.0 
-1.6286e-90 -2.69605e-91 0.0 
1.01329 -0.000179607 0.0 
0.692488 0.00101845 0.0 
0.493332 -0.0224222 0.0 
0.046946 -0.00259599 0.0 
0.939233 0.05043 0.0 
0.96369 -0.283005 0.0 
1.0075 0.000460139 0.0 
1.00578 -0.000216694 0.0 
1.0057 -0.000442792 0.0 
1.0796 -0.0933735 0.0 
0.962321 -0.0565688 0.0 
0.924796 -0.305843 0.0 
0.997326 -0.000784149 0.0 
0.999356 0.000716771 0.0 
1.00663 0.000644273 0.0 
0 0 0.0 
1.00002 -0.000183927 0.0 
1.00466 -0.00302046 0.0 
0.0124672 -0.00210919 0.0 
1.00718 0.0010071 0.0 
0.0177472 0.00117189 0.0 
0.087842 0.00116468 0.0 
1.00586 -0.00115523 0.0 
1.00602 0.000386375 0.0 
1.00024 0.000356609 0.0 
0.30082 0.00831639 0.0 
1.00722 0.000326005 0.0 
1.00504 -0.000214749 0.0 
1.01012 0.00418783 0.0 
0.283916 -0.0409475 0.0 
1.01819 0.0100522 0.0 
0.999989 0.000294419 0.0 
0.635906 0.0146571 0.0 
1.00662 -0.000718017 0.0 
0.704901 0.0906031 0.0 
0.0127106 -0.00109258 0.0 
1.00135 0.00283033 0.0 
1.00594 0.000207901 0.0 
0.999796 -0.000813147 0.0 
0.108028 -0.0152928 0.0 
1.00797 -0.0014824 0.0 
0.406157 -0.0978735 0.0 
1.00628 0.000332113 0.0 
1.00888 0.00192459 0.0 
1.00003 0.000300684 0.0 
1.00578 -0.000848547 0.0 
1.00674 0.000723616 0.0 
1.00702 -0.000677306 0.0 
1.00626 -0.000360611 0.0 
1.00658 0.00071998 0.0 
1.00805 -0.00710035 0.0 
1.0054 -0.00016992 0.0 
1 0.000232227 0.0 
0.997598 0.00165442 0.0 
1.02541 0.0208973 0.0 
0.00043627 7.87021e-05 0.0 
0.861101 0.00200092 0.0 
0.384109 -0.0108342 0.0 
1.0054 -0.002072 0.0 
0 0 0.0 
0.0241122 -0.0025741 0.0 
0.0742364 0.0225672 0.0 
0.0065769 -0.000217953 0.0 
0.9471 0.00208144 0.0 
0 0 0.0 
1.00391 0.147955 0.0 
0.888429 0.0582072 0.0 
0.987799 0.00129144 0.0 
0.00334417 -0.000789621 0.0 
0.3319 -0.00587402 0.0 
1.00521 0.000134144 0.0 
1.00441 0.000881935 0.0 
0.00315927 -0.000621652 0.0 
0.812687 0.0141111 0.0 
0.203535 0.0173432 0.0 
1.00835 0.00128995 0.0 
1.00997 -0.00182286 0.0 
0.260439 0.0228621 0.0 
1.00395 0.000252497 0.0 
0.0062701 -0.0011099 0.0 
0.00112041 4.82336e-05 0.0 
0.705721 0.0132673 0.0 
0.722943 -0.0308424 0.0 
1 0 0.0 
0.0263955 -0.00178758 0.0 
0.983497 0.139592 0.0 
0.868645 -0.0163704 0.0 
0.862234 0.0304534 0.0 
1.00619 -0.000400606 0.0 
0.0221371 -0.00247472 0.0 
0.0306294 -0.0167978 0.0 
0.501559 -0.0128057 0.0 
1.00437 0.00157836 0.0 
0.935472 -0.00322238 0.0 
-5.32171e-69 1.63495e-69 0.0 
1.12514 0.0832833 0.0 
1.00519 0.00145312 0.0 
0.99988 0.000975685 0.0 
1.00741 0.000281306 0.0 
1.00573 -0.0450068 0.0 
1.00724 0.000294185 0.0 
1.00521 -0.00230969 0.0 
1.00644 0.00106986 0.0 
1.00505 -0.00248318 0.0 
1.04001 -0.00270279 0.0 
0.998891 0.00447472 0.0 
1.00476 0.0011708 0.0 
0.937831 -0.00270518 0.0 
1.00173 -0.000505912 0.0 
1.00558 -8.45374e-05 0.0 
0.338108 0.0547065 0.0 
0.561755 -0.0357069 0.0 
1.00597 -6.08205e-05 0.0 
1.00469 -0.00284074 0.0 
0.0137834 -0.00241086 0.0 
0 0 0.0 
1.0032 -0.00212875 0.0 
1.006 -9.55408e-06 0.0 
1.04038 0.0230186 0.0 
1.00406 -0.000293711 0.0 
1.00364 -0.000412056 0.0 
4.97733e-276 1.76558e-277 0.0 
1.00561 -0.00513771 0.0 
1.00564 8.53385e-05 0.0 
1.00305 -0.000637083 0.0 
1 -0.000953472 0.0 
1.01252 0.0260502 0.0 
0.0607333 -0.0131926 0.0 
1.00662 0.00114295 0.0 
0.00643105 -0.00132669 0.0 
1.00832 0.00175904 0.0 
1.00611 -0.000773358 0.0 
0.955445 0.0281543 0.0 
1.00469 -0.00141342 0.0 
1.00739 -0.000758342 0.0 
1.00622 0.00111419 0.0 
1.00814 0.00202315 0.0 
0.00728305 -0.00119734 0.0 
0 0 0.0 
0.0259882 0.00120272 0.0 
0.136767 0.0373535 0.0 
0.88667 -0.021052 0.0 
1.00602 0.000456467 0.0 
1.00422 -0.00297105 0.0 
0.999999 0.00012667 0.0 
1.00001 -0.000260523 0.0 
0.00630361 0.000564547 0.0 
0.861402 0.0313379 0.0 
0.274109 0.00446402 0.0 
1.00757 0.000305568 0.0 
1.00875 0.00017723 0.0 
0.000296397 3.96776e-05 0.0 
1.00495 0.00131056 0.0 
0.996205 0.00866044 0.0 
0.0681454 0.00595188 0.0 
0.999997 -0.000439508 0.0 
1.0071 0.000334814 0.0 
0.401939 0.00501287 0.0 
1.00501 -0.000639703 0.0 
0.431602 0.00787254 0.0 
0 0 0.0 
0.997017 -0.00620174 0.0 
1.00696 -0.0011833 0.0 
1.00596 -5.13588e-05 0.0 
1.00507 -0.00133674 0.0 
1.0059 -0.000120615 0.0 
1.00357 -0.00242885 0.0 
1.00481 -0.001042 0.0 
0.181576 0.000353236 0.0 
1.00623 -0.000820855 0.0 
0 0 0.0 
1.00473 0.00100627 0.0 
1.00501 -0.00102179 0.0 
0.388542 0.00546295 0.0 
1.00466 -0.000180841 0.0 
1.00691 0.000138409 0.0 
0.00781458 -0.00124918 0.0 
1.00013 -0.000259243 0.0 
1.00387 -0.000852863 0.0 
0.91294 -0.0161484 0.0 
0.893242 0.0140454 0.0 
0.0137443 9.85285e-05 0.0 
1.00008 -0.000692851 0.0 
1.05945 0.0946352 0.0 
1.00451 -0.000247496 0.0 
0.92756 -0.164232 0.0 
1.00128 -0.00669321 0.0 
0.997481 0.0123346 0.0 
0 0 0.0 
1.00469 -0.000253007 0.0 
0.620693 0.0268945 0.0 
0.4173 0.00197191 0.0 
0.935535 -0.0037887 0.0 
0.970946 -0.0376391 0.0 
0.434489 -0.00104953 0.0 
1.00797 -0.000155088 0.0 
1.00516 7.24168e-05 0.0 
0.994642 -0.0014303 0.0 
1.00601 -0.000332073 0.0 
0.999826 0.00212113 0.0 
1.00414 -0.00252774 0.0 
0.758175 0.14864 0.0 
1.00085 0.0168746 0.0 
0.440851 -0.0161907 0.0 
0.359837 0.0321007 0.0 
1.00365 -0.00137777 0.0 
1.00673 -0.000676667 0.0 
1.00632 -0.000916727 0.0 
1.01067 -0.000461432 0.0 
0.0362633 -0.00715095 0.0 
0.333731 -0.00158873 0.0 
0.353794 -0.00176664 0.0 
1.00575 0.00022355 0.0 
0.950697 0.0324291 0.0 
1.00687 3.71457e-05 0.0 
0.788042 0.141139 0.0 
0.40286 0.0314837 0.0 
1.0059 -0.000636233 0.0 
1.00627 0.000185049 0.0 
0.039472 0.00107218 0.0 
1.00729 0.000133193 0.0 
1.00007 -0.000223235 0.0 
0.346452 0.000999535 0.0 
0.315646 0.0449485 0.0 
1.00569 -0.000720847 0.0 
0.794244 -0.00120481 0.0 
0.999832 -0.000286501 0.0 
0.997669 0.00434424 0.0 
1.00563 -0.000308202 0.0 
1.00001 -0.000133511 0.0 
0.0781556 0.0278653 0.0 
0.600143 0.0141812 0.0 
1.0041 -0.000248309 0.0 
0.911068 -0.0563074 0.0 
1.00322 0.00220619 0.0 
0.790659 0.00185361 0.0 
0.886245 0.0155089 0.0 
0.390434 0.138541 0.0 
1.01028 -0.104716 0.0 
0.835498 -0.0515564 0.0 
1 -0.000254905 0.0 
0.322951 -0.234646 0.0 
0.389881 0.0863127 0.0 
0.0571287 -0.000659487 0.0 
1.00645 -0.000830733 0.0 
1.00239 0.00980749 0.0 
1.00323 -0.000331244 0.0 
0.395636 -0.0096077 0.0 
0.0147762 -0.00225312 0.0 
0.0301036 0.000183589 0.0 
0.514271 0.264075 0.0 
1.00725 0.00017381 0.0 
0 0 0.0 
1.00435 0.00130972 0.0 
1.00655 -0.000245089 0.0 
0.235961 0.004166 0.0 
1.00558 0.000178676 0.0 
0.482917 0.0678353 0.0 
0.0455926 -0.000191572 0.0 
0.904575 -0.0944388 0.0 
0.885478 -0.0547156 0.0 
0.0151726 -0.0280785 0.0 
1.00532 0.000249885 0.0 
0.834723 0.291761 0.0 
1.00773 0.000108154 0.0 
0.698282 0.00434631 0.0 
0.599686 -0.000506603 0.0 
0.914829 -0.373163 0.0 
1.00658 -0.000110101 0.0 
1.00476 -0.00205191 0.0 
1.02116 0.0974083 0.0 
1.11697 0.0424964 0.0 
0.00695798 -0.000727336 0.0 
1.00578 0.00134995 0.0 
0.304675 0.0671637 0.0 
1.00034 -0.000232401 0.0 
0 0 0.0 
1.00675 0.00112127 0.0 
1.00444 -0.000299301 0.0 
0.999761 0.00185084 0.0 
0.985957 0.0034862 0.0 
1.00491 5.88964e-05 0.0 
1.00762 -0.00193044 0.0 
1.00556 0 0.0 
0.883692 -0.0205557 0.0 
0.0359538 0.00363819 0.0 
0.0809259 0.0549681 0.0 
1.00503 0.0011701 0.0 
-7.25821e-44 -2.7189e-45 0.0 
0.0312581 -0.0163296 0.0 
1.00461 0.000404652 0.0 
0.51893 -0.0464668 0.0 
1.00453 -0.000536006 0.0 
0.999937 -0.00133812 0.0 
0.915768 0.131021 0.0 
1.00682 -0.00089164 0.0 
0.948641 -0.0516255 0.0 
0.961501 -0.00490821 0.0 
1.00591 -3.64032e-05 0.0 
0.447537 -0.0175841 0.0 
1.01155 -0.0134157 0.0 
0.999855 0.000379737 0.0 
1.00536 0.000519346 0.0 
0.970252 -0.066808 0.0 
1.00332 0 0.0 
1.00585 0.000187193 0.0 
0.91466 0.030254 0.0 
1.00597 7.54967e-06 0.0 
0.656617 0.0110405 0.0 
0.612361 -0.431438 0.0 
1.00599 -0.000441323 0.0 
1.00699 -0.000335919 0.0 
0.0113818 0.000840262 0.0 
1.00124 -0.00226411 0.0 
0.046103 -0.00499632 0.0 
0.046924 -0.0080279 0.0 
0.901349 -0.000411883 0.0 
0.444041 0.17422 0.0 
1.00713 -0.0005285 0.0 
1.0038 -0.00173411 0.0 
0.974235 -0.0229285 0.0 
0.993434 0.00198216 0.0 
1.00567 0.000437087 0.0 
0.0706253 0.00990966 0.0 
1.00833 0.000578835 0.0 
1.00097 -0.000852693 0.0 
1.00012 -0.000686962 0.0 
0.939953 -0.283558 0.0 
0.999478 0.000171711 0.0 
1.00637 -5.19573e-05 0.0 
0.157159 0.0086334 0.0 
1.00634 -0.00179135 0.0 
1.00464 -0.00348006 0.0 
1.00358 0.00444101 0.0 
0.999923 9.61886e-06 0.0 
1.00501 -0.000735814 0.0 
1.00029 0.000673026 0.0 
0.566331 -0.0174278 0.0 
0.192158 0.0666225 0.0 
0 0 0.0 
1.00992 -0.00356493 0.0 