<VTKFile type="UnstructuredGrid" version="0.1" byte_order="LittleEndian">
  <UnstructuredGrid>
    <Piece NumberOfPoints="12594" NumberOfCells="25032">
      <Points>
        <DataArray type = "Float64" NumberOfComponents="3" format="ascii">
0 0 0.0 
14 0 0.0 
14 8 0.0 
0 8 0.0 
4.38439 3.94377 0.0 
12.8057 1.94595 0.0 
0.483697 5.24337 0.0 
4.20252 3.96609 0.0 
4.08781 3.96517 0.0 
4.94452 4.01189 0.0 
3.86351 3.90212 0.0 
4.03492 3.96665 0.0 
6.4151 3.89068 0.0 
9.31722 3.89692 0.0 
4.08596 3.93674 0.0 
4.17015 4.0821 0.0 
4.4023 3.95598 0.0 
4.93369 4.06283 0.0 
4.61918 4.05429 0.0 
4.05477 4.02613 0.0 
4.44498 3.9725 0.0 
9.30614 6.73492 0.0 
8.29677 5.77683 0.0 
2.26118 6.20994 0.0 
4.80947 3.98094 0.0 
4.00922 3.99881 0.0 
4.02803 4.04844 0.0 
4.44322 3.92652 0.0 
4.01927 3.99345 0.0 
4.57479 4.08961 0.0 
4.11094 4.03801 0.0 
4.84218 4.09374 0.0 
4.05929 4.01962 0.0 
3.98196 3.98783 0.0 
5.00749 4.02107 0.0 
4.36023 4.05917 0.0 
5.05366 4.0148 0.0 
4.221 4.05846 0.0 
4.03416 4.05264 0.0 
4.12387 3.9193 0.0 
5.00166 3.98677 0.0 
5.22095 7.48607 0.0 
3.99602 4.00219 0.0 
4.04754 4.09549 0.0 
10.0212 8 0.0 
5.72494 4.06934 0.0 
5.53497 3.74047 0.0 
4.1897 4.12813 0.0 
5.95756 4.13237 0.0 
4.14605 3.99725 0.0 
3.9973 4.00729 0.0 
4.62278 3.95949 0.0 
4.09925 3.9694 0.0 
4.06248 3.95277 0.0 
14 6.11123 0.0 
4.12856 3.96835 0.0 
3.96293 3.99513 0.0 
4.03268 4.02147 0.0 
4.77041 3.98823 0.0 
6.22932 0.792437 0.0 
3.99922 3.99464 0.0 
4.00765 4.11662 0.0 
5.06584 4.12408 0.0 
4.99983 4.00536 0.0 
14 5.21618 0.0 
13.1452 3.87422 0.0 
8.55881 8 0.0 
4.62392 4.0537 0.0 
4.26266 4.06868 0.0 
4.91005 3.99362 0.0 
3.90659 4.05024 0.0 
0.922814 3.77166 0.0 
4.57178 4.02612 0.0 
4.76493 4.02273 0.0 
4.09936 4.00752 0.0 
4.27441 4.05318 0.0 
0.471297 5.53111 0.0 
4.23647 3.95137 0.0 
5.00128 3.99352 0.0 
4.08373 4.05666 0.0 
3.74138 4.1486 0.0 
3.99964 4.01132 0.0 
5.04845 4.04311 0.0 
4.69203 3.9842 0.0 
3.99197 3.99669 0.0 
4.04716 4.01881 0.0 
3.99093 4.00808 0.0 
4.21363 3.94429 0.0 
4.22117 4.07113 0.0 
4.17428 4.07543 0.0 
4.00076 4.00823 0.0 
10.1833 0.248119 0.0 
4.02875 4.04115 0.0 
4.38441 4.10746 0.0 
4.32409 4.06908 0.0 
3.7391 1.31631 0.0 
1.26284 5.53443 0.0 
4.06788 4.06311 0.0 
4.33025 3.96893 0.0 
4.00818 4.013 0.0 
3.91267 2.38613 0.0 
4.0014 4.01066 0.0 
4.02638 3.97895 0.0 
4.00862 3.98581 0.0 
4.12124 3.98374 0.0 
7.42852 3.22864 0.0 
4.09629 4.05145 0.0 
4.15544 3.92346 0.0 
4.50596 3.97773 0.0 
5.18194 4.12652 0.0 
1.00167 2.56343 0.0 
4.02244 4.02798 0.0 
4.18144 4.05239 0.0 
0 1.4212 0.0 
4.13582 4.08151 0.0 
5.0905 2.15481 0.0 
2.51481 7.76207 0.0 
5.01331 3.98969 0.0 
4.73856 4.0558 0.0 
4.3809 4.06804 0.0 
4.12754 3.92728 0.0 
4.67258 4.02293 0.0 
4.79296 3.98918 0.0 
4.08696 3.9688 0.0 
4.05644 3.97561 0.0 
4.196 3.98086 0.0 
4.07325 4.06871 0.0 
4.20173 4.04725 0.0 
4.31783 3.11774 0.0 
3.99252 4.00665 0.0 
4.00947 4.02943 0.0 
12.2374 6.2727 0.0 
4.42742 3.97213 0.0 
4.05927 4.01126 0.0 
5.96117 1.49987 0.0 
4.24294 4.04149 0.0 
4.05784 3.98854 0.0 
3.02665 2.14412 0.0 
4.0927 3.96862 0.0 
4.10081 3.94382 0.0 
4.98235 4.01343 0.0 
4.31897 4.08217 0.0 
5.00368 4.02219 0.0 
10.7396 5.64099 0.0 
4.30065 4.07442 0.0 
0.847225 3.49236 0.0 
4.71274 3.98455 0.0 
4.75703 3.98652 0.0 
3.9818 4.03131 0.0 
3.96476 4.03852 0.0 
4.19173 3.9525 0.0 
3.97233 4.04194 0.0 
5.03379 4.02602 0.0 
3.99803 4.00953 0.0 
4.00621 4.04562 0.0 
1.12644 3.34247 0.0 
3.92251 4.00785 0.0 
3.84283 3.97334 0.0 
2.26452 4.22302 0.0 
4.82311 3.99063 0.0 
4.02256 3.97625 0.0 
4.03269 3.97628 0.0 
4.91082 3.99464 0.0 
4.01759 3.99821 0.0 
5.04007 4.02119 0.0 
4.07039 3.9735 0.0 
13.2653 2.91651 0.0 
4.00756 4.02287 0.0 
6.70787 3.84662 0.0 
4.23103 3.92099 0.0 
4.17857 3.91238 0.0 
4.79102 4.05549 0.0 
7.69958 4.28684 0.0 
4.13669 4.04946 0.0 
4.01768 3.98933 0.0 
4.01026 3.99982 0.0 
4.27933 3.72429 0.0 
4.10608 4.02928 0.0 
4.00618 4.01823 0.0 
4.50985 7.40044 0.0 
4.79751 1.7407 0.0 
4.15942 4.03647 0.0 
4.57838 4.03055 0.0 
5.05919 4.01855 0.0 
2.15923 7.15628 0.0 
4.00635 4.06109 0.0 
1.19048 2.31603 0.0 
4.01577 3.95866 0.0 
4.55511 3.91429 0.0 
7.18887 6.80823 0.0 
1.24078 0.550265 0.0 
9.10545 7.45594 0.0 
2.38032 0.204862 0.0 
4.01517 4.03055 0.0 
3.99882 3.99972 0.0 
4.17003 3.97668 0.0 
4.30671 3.96864 0.0 
3.99908 3.98836 0.0 
8.20853 3.96723 0.0 
4.07856 4.04402 0.0 
4.75235 3.81019 0.0 
4.1938 4.04426 0.0 
4.21507 3.9482 0.0 
6.54837 4.20004 0.0 
4.97222 4.02124 0.0 
13.5339 3.50077 0.0 
6.57902 3.18132 0.0 
4.04613 3.97519 0.0 
5.02032 4.0056 0.0 
11.9473 3.59927 0.0 
5.1327 4.04445 0.0 
9.40383 4.95267 0.0 
8.1459 5.49937 0.0 
4.05142 4.01968 0.0 
4.05471 3.96974 0.0 
4.00357 4.03077 0.0 
3.9901 3.98452 0.0 
4.97439 3.96659 0.0 
4.17994 4.07858 0.0 
4.12644 3.96842 0.0 
3.95563 4.15207 0.0 
4.02484 3.97834 0.0 
4.29891 4.07157 0.0 
4.00095 4.00279 0.0 
5.00832 3.99845 0.0 
3.99899 4.01393 0.0 
4.0686 3.79132 0.0 
4.67941 4.01821 0.0 
13.2253 0 0.0 
4.03555 4.04122 0.0 
4.11601 3.96901 0.0 
4.00314 4.00997 0.0 
4.66666 4.04899 0.0 
9.51686 4.48852 0.0 
5.08198 4.04957 0.0 
5.02947 4.00625 0.0 
4.08343 3.97147 0.0 
4.22873 4.06781 0.0 
4.00108 4.00204 0.0 
4.55128 4.07685 0.0 
4.08711 3.98632 0.0 
4.35413 3.9693 0.0 
10.9847 0.302312 0.0 
4.01254 4.0098 0.0 
3.98048 4.05294 0.0 
3.98202 3.97394 0.0 
4.13386 4.04638 0.0 
3.98816 4.01224 0.0 
4.24706 4.066 0.0 
0.848755 1.28674 0.0 
4.02495 4.02882 0.0 
3.99752 4.02893 0.0 
4.01884 3.99521 0.0 
4.31691 4.07149 0.0 
3.98628 3.99582 0.0 
4.72738 4.04754 0.0 
4.73303 3.98538 0.0 
4.01754 3.97341 0.0 
6.83753 0.866924 0.0 
6.61761 4.00249 0.0 
4.06727 4.03966 0.0 
4.4558 3.97413 0.0 
9.55669 5.91713 0.0 
4.00774 3.99043 0.0 
4.00318 4.00724 0.0 
4.3171 4.12404 0.0 
3.9833 3.95517 0.0 
3.93549 3.94275 0.0 
4.79905 4.03351 0.0 
5.26811 1.97688 0.0 
5.10311 4.0306 0.0 
4.04638 4.02867 0.0 
4.00359 4.03909 0.0 
3.9929 4.0956 0.0 
4.05632 3.90623 0.0 
4.08476 4.08 0.0 
4.00214 3.99159 0.0 
4.18359 4.0716 0.0 
5.08887 3.98173 0.0 
11.7168 4.544 0.0 
4.00063 4.00116 0.0 
4.11177 4.04949 0.0 
4.8181 4.03076 0.0 
3.9961 4.02386 0.0 
4.80863 4.03222 0.0 
4.12864 4.06228 0.0 
4.2046 4.06501 0.0 
5.18793 4.05304 0.0 
4.85539 3.99229 0.0 
3.98111 4.00805 0.0 
9.96077 3.85593 0.0 
3.99352 3.97666 0.0 
0.747562 5.69493 0.0 
3.80235 3.87754 0.0 
4.5964 4.0634 0.0 
10.168 3.98847 0.0 
8.28094 0.596167 0.0 
3.98586 3.96653 0.0 
4.77294 3.96583 0.0 
11.3109 3.9311 0.0 
4.50959 3.96356 0.0 
10.3101 1.90551 0.0 
4.09378 3.94595 0.0 
4.02402 4.04636 0.0 
5.01169 4.0005 0.0 
4.47749 4.06511 0.0 
4.06133 4.06985 0.0 
5.04267 4.00787 0.0 
3.99417 4.04189 0.0 
7.6181 7.09785 0.0 
4.71441 7.15979 0.0 
3.99997 3.99241 0.0 
4.41092 4.08744 0.0 
7.77738 3.44916 0.0 
3.98918 4.03714 0.0 
6.02554 0.627646 0.0 
4.01059 4.0357 0.0 
4.02775 3.97637 0.0 
4.27012 4.05517 0.0 
4.97979 3.99813 0.0 
4.00056 4.04248 0.0 
3.99441 4.00023 0.0 
2.48135 1.40934 0.0 
3.9896 4.00463 0.0 
13.0669 5.33019 0.0 
3.98613 3.98439 0.0 
4.54345 4.06085 0.0 
4.00273 4.04763 0.0 
4.02428 4.00868 0.0 
4.18791 3.96113 0.0 
4.46758 4.0646 0.0 
3.80108 4.10984 0.0 
4.41724 3.97146 0.0 
4.99702 4.01381 0.0 
3.98643 3.99986 0.0 
4.56409 3.94817 0.0 
4.38171 3.95809 0.0 
3.99581 3.98523 0.0 
4.08368 3.86582 0.0 
4.04308 4.03468 0.0 
3.98481 4.00073 0.0 
3.97761 4.0047 0.0 
8.39153 6.28241 0.0 
4.17248 3.96627 0.0 
5.04646 4.01128 0.0 
4.11077 4.06077 0.0 
3.98558 4.00796 0.0 
3.98828 3.90022 0.0 
3.99735 4.00608 0.0 
4.18165 3.95945 0.0 
1.95665 6.95462 0.0 
4.09476 4.08011 0.0 
4.55767 4.04361 0.0 
4.18847 4.06784 0.0 
5.00025 4.00682 0.0 
9.04276 5.96039 0.0 
4.07076 4.03121 0.0 
4.049 3.94967 0.0 
3.99705 4.04765 0.0 
5.00029 3.98416 0.0 
4.44733 4.05798 0.0 
4.27037 4.11663 0.0 
5.9058 2.8559 0.0 
4.44601 4.06627 0.0 
4.37308 4.06983 0.0 
4.02241 4.04141 0.0 
3.9487 4.03134 0.0 
4.02972 4.05235 0.0 
4.50321 4.06381 0.0 
4.01777 4.04818 0.0 
4.16851 4.0574 0.0 
5.17999 4.20915 0.0 
4.0266 3.96232 0.0 
4.0018 3.9276 0.0 
4.10695 3.94953 0.0 
13.0064 4.46872 0.0 
3.26806 4.20078 0.0 
4.28117 3.92206 0.0 
4.03778 3.99834 0.0 
4.31311 6.61905 0.0 
4.85888 4.25575 0.0 
4.43536 4.06777 0.0 
4.27242 3.94793 0.0 
4.98817 4.01929 0.0 
3.95357 4.06538 0.0 
2.77151 1.33737 0.0 
4.10175 3.95894 0.0 
4.50104 3.96691 0.0 
4.99556 3.99807 0.0 
4.46994 3.97442 0.0 
4.00572 3.98505 0.0 
4.00335 3.99713 0.0 
10.7084 2.37312 0.0 
4.65442 3.98191 0.0 
3.99904 3.97967 0.0 
3.94862 4.04213 0.0 
4.28369 4.07298 0.0 
3.9947 4.00336 0.0 
4.46468 3.97398 0.0 
4.06741 3.96332 0.0 
4.24523 4.06869 0.0 
4.05951 3.9736 0.0 
4.1591 4.07618 0.0 
8.94038 7.70202 0.0 
2.33056 5.57699 0.0 
4.0839 3.97288 0.0 
4.0912 3.91798 0.0 
7.23144 2.85875 0.0 
4.68547 3.98441 0.0 
10.8478 4.42307 0.0 
5.00794 4.01633 0.0 
3.97614 4.01755 0.0 
4.02214 4.02155 0.0 
5.46984 4.17168 0.0 
4.36438 3.97018 0.0 
9.15388 3.83278 0.0 
4.09149 4.05266 0.0 
4.05996 4.02956 0.0 
4.0725 4.06182 0.0 
3.99686 4.00472 0.0 
3.97182 4.01786 0.0 
8.98125 6.17249 0.0 
4.59834 4.09353 0.0 
5.02611 4.00685 0.0 
5.00546 4.00535 0.0 
4.0488 4.03914 0.0 
4.94534 4.01071 0.0 
4.67024 4.12294 0.0 
4.03117 3.76284 0.0 
4.06144 3.85392 0.0 
5.00397 3.99911 0.0 
4.39195 4.06928 0.0 
4.01707 3.9715 0.0 
4.65082 4.05039 0.0 
4.98755 4.00405 0.0 
4.03831 3.95277 0.0 
4.78697 4.0344 0.0 
4.28981 4.11298 0.0 
4.3231 4.06066 0.0 
11.231 4.27123 0.0 
4.39904 4.17081 0.0 
4.01978 4.02634 0.0 
4.08018 4.04076 0.0 
4.07267 3.96842 0.0 
4.0188 3.97459 0.0 
4.45354 3.973 0.0 
3.99511 3.99395 0.0 
6.52965 4.01898 0.0 
4.14347 4.06123 0.0 
5.00771 4.00059 0.0 
4.99939 3.99739 0.0 
14 2.14346 0.0 
7.88732 3.79333 0.0 
5.76502 7.41457 0.0 
5.00079 3.98878 0.0 
3.97954 4.04522 0.0 
13.4854 0 0.0 
3.98276 4.03655 0.0 
3.97716 3.98171 0.0 
3.98686 4.01708 0.0 
5.00841 3.97606 0.0 
4.99901 3.99971 0.0 
4.1302 4.05452 0.0 
4.04122 3.94064 0.0 
4.096 3.95606 0.0 
6.47358 4.15794 0.0 
3.97814 4.00223 0.0 
4.89285 4.15668 0.0 
4.18919 3.9015 0.0 
6.82081 1.43822 0.0 
4.05469 3.98217 0.0 
4.1595 4.07292 0.0 
[...]
<PointData>
  <DataArray type = "Float64" Name="Vitesse" NumberOfComponents="3" format="ascii">
1 0 0.0 
1.00737 0 0.0 
1.00595 0 0.0 
1 0 0.0 
0.441183 0.00463452 0.0 
1.00884 0.000260988 0.0 
0.999968 0.000644373 0.0 
0.0360684 -0.00161659 0.0 
0.276842 -0.0319523 0.0 
0.0025563 -0.000364261 0.0 
0.911252 -0.0640652 0.0 
0.770546 -0.234558 0.0 
0.875078 0.00675891 0.0 
0.84482 0.00553371 0.0 
1.05065 -0.185271 0.0 
0.771979 0.120157 0.0 
0.239895 0.00543457 0.0 
0.29652 -0.0271478 0.0 
0.00462442 -0.000515513 0.0 
0 0 0.0 
0.0133183 0.000305725 0.0 
1.0081 -0.000680513 0.0 
1.00939 -0.00169857 0.0 
1.00164 0.00392683 0.0 
0.0873658 0.00407992 0.0 
0 0 0.0 
0.837009 0.360008 0.0 
0.689302 0.00344205 0.0 
0 0 0.0 
0.419552 -0.0190309 0.0 
0 0 0.0 
0.56351 -0.0374404 0.0 
0 0 0.0 
0.590345 -0.228527 0.0 
0.0594562 -0.0181961 0.0 
0 0 0.0 
0.077282 -0.00652234 0.0 
1.07174e-45 1.40039e-46 0.0 
0.869519 0.348534 0.0 
1.089 -0.142703 0.0 
0.126434 0.0174008 0.0 
1.00954 0.000517672 0.0 
0.133535 -0.0762732 0.0 
0.968281 0.259912 0.0 
1.00718 0 0.0 
0.609283 -0.0165804 0.0 
1.01416 0.0159223 0.0 
1.1098 0.163382 0.0 
0.898843 -0.013137 0.0 
-1.34438e-172 -1.06452e-173 0.0 
0.155793 0.11576 0.0 
0.247063 0.00901697 0.0 
0.0416624 -0.00349088 0.0 
0.922469 -0.198503 0.0 
1.00742 -0.000527932 0.0 
0.0219348 -0.000706556 0.0 
0.670758 -0.0826673 0.0 
0 0 0.0 
-3.13463e-14 -1.58147e-15 0.0 
1.00914 -0.000154098 0.0 
0.192513 -0.29395 0.0 
0.923572 0.197181 0.0 
0.858212 -0.0512015 0.0 
0.0161111 -0.00901088 0.0 
1.00701 -0.00155078 0.0 
0.883498 0.00221006 0.0 
1.00798 0 0.0 
0.00412365 -0.000299078 0.0 
0.0490021 0.00317455 0.0 
0.0113152 0.000137235 0.0 
0.838943 0.0488826 0.0 
0.999516 2.76703e-05 0.0 
3.77789e-241 5.45725e-242 0.0 
-9.44971e-84 7.57983e-85 0.0 
-1.11155e-191 -4.7108e-193 0.0 
0 0 0.0 
0.999983 0.000661755 0.0 
0.36202 -0.0055998 0.0 
0.0654851 0.0141448 0.0 
0.609633 0.161761 0.0 
0.941723 0.0331076 0.0 
0.217227 0.217535 0.0 
0.197487 -0.0262371 0.0 
0.00026333 4.77139e-05 0.0 
0.339091 -0.245106 0.0 
0 0 0.0 
0.338017 0.0653805 0.0 
0.556226 -0.0195437 0.0 
0.228838 0.021283 0.0 
0.566787 0.0806883 0.0 
0.084934 0.108982 0.0 
1.00805 4.33144e-05 0.0 
0.733116 0.334811 0.0 
0.77443 0.0209132 0.0 
1.64139e-05 5.16116e-07 0.0 
1.00575 -0.00366537 0.0 
0.999949 0.00202898 0.0 
0.900464 0.277485 0.0 
0.0125278 0.000329179 0.0 
-1.32299e-80 -7.8659e-81 0.0 
1.00802 -0.00993377 0.0 
0.144289 0.167853 0.0 
0.227909 -0.0770906 0.0 
0.323097 -0.202558 0.0 
0 0 0.0 
1.00965 0.00186533 0.0 
0.235244 0.0600323 0.0 
1.03682 -0.103403 0.0 
-5.00694e-34 -5.96726e-35 0.0 
0.872042 -0.0445102 0.0 
0.999827 -0.00100559 0.0 
0.331692 0.175754 0.0 
2.76342e-31 1.89522e-32 0.0 
1 0 0.0 
0.909834 0.179702 0.0 
1.01308 -0.0028436 0.0 
1.00287 0.000563904 0.0 
0.106955 0.0189975 0.0 
0.109441 -0.0106847 0.0 
-1.14042e-90 -4.17726e-92 0.0 
1.04963 -0.130058 0.0 
-1.37466e-242 1.03469e-243 0.0 
-2.10869e-276 -2.64065e-277 0.0 
0.117769 -0.0114988 0.0 
1.55222e-58 -2.77179e-59 0.0 
-6.72702e-234 4.83195e-236 0.0 
0.951092 0.279889 0.0 
-2.17204e-252 -2.73155e-253 0.0 
1.02141 -0.0189029 0.0 
0.283069 0.0460611 0.0 
0.618727 0.370069 0.0 
1.00754 -0.00046425 0.0 
0.00850388 0.00111741 0.0 
1e-307 1e-307 0.0 
1.01041 -0.000346418 0.0 
0 0 0.0 
0 0 0.0 
1.00234 -0.00602762 0.0 
0.10162 -0.00969705 0.0 
0.915103 -0.131158 0.0 
0.0228716 -0.00452377 0.0 
0.331068 0.0116902 0.0 
0.0628014 -0.0176227 0.0 
1.00873 -0.000670323 0.0 
0.158006 0.00544509 0.0 
0.999659 -0.000234863 0.0 
0.00799891 0.000476055 0.0 
0.0105229 0.00067651 0.0 
0.646295 0.182212 0.0 
0.723653 0.121381 0.0 
0.387242 -0.0126205 0.0 
0.721201 0.1561 0.0 
0.091865 -0.018425 0.0 
0.198334 0.178808 0.0 
0.76201 0.327844 0.0 
0.999374 -0.000582277 0.0 
0.791466 -0.010544 0.0 
0.887586 -0.0261603 0.0 
0.995774 0.00206692 0.0 
0.000155723 1.76093e-05 0.0 
0.525972 -0.197545 0.0 
0.278386 -0.0784539 0.0 
0.000299683 5.18351e-06 0.0 
0 0 0.0 
0.0785896 -0.0141515 0.0 
-1.56965e-91 2.55363e-92 0.0 
1.00906 0.000370622 0.0 
0.472736 0.330646 0.0 
0.95992 0.00390172 0.0 
0.946087 -0.0514721 0.0 
1.07357 -0.0951167 0.0 
0.14345 -0.0144646 0.0 
1.00761 -0.00367045 0.0 
-9.91019e-75 -1.7131e-75 0.0 
-1.43091e-247 1.74566e-248 0.0 
-4.53451e-55 7.32565e-55 0.0 
1.05993 -0.0516295 0.0 
0 0 0.0 
0.323025 0.261717 0.0 
1.00853 0.00129132 0.0 
1.01044 -0.00339216 0.0 
0 0 0.0 
5.01038e-244 7.45222e-245 0.0 
0.0873678 -0.00906694 0.0 
1.00202 0.00172426 0.0 
0.823502 0.284066 0.0 
0.999934 -0.00133857 0.0 
0.944091 -0.359683 0.0 
0.798379 0.00777933 0.0 
1.00972 -0.00100924 0.0 
1.0005 -0.00046497 0.0 
1.00778 -0.000314765 0.0 
1.00202 -0.000372925 0.0 
0.60036 0.337552 0.0 
0.04919 -0.116791 0.0 
-1.27196e-115 1.83612e-117 0.0 
0.00873803 -3.79658e-05 0.0 
0.479463 -0.445967 0.0 
0.726568 0.00248673 0.0 
0.066349 0.0198442 0.0 
1.0598 0.00708654 0.0 
0 0 0.0 
0.460671 -0.0133745 0.0 
0.994874 -0.00744539 0.0 
0.0440319 -0.00693215 0.0 
1.01252 -0.000136742 0.0 
1.01089 0.00316228 0.0 
0.118736 -0.0224223 0.0 
0.0425909 -0.0032849 0.0 
1.01133 -0.0011886 0.0 
0.256293 -0.0226175 0.0 
1.00945 -0.00147323 0.0 
1.00976 -0.0019894 0.0 
-1.94882e-92 -6.60792e-93 0.0 
0.335961 -0.0681231 0.0 
0.638961 0.360498 0.0 
0.594952 -0.346953 0.0 
0.302638 0.0184189 0.0 
0.63195 0.0890426 0.0 
0.0205816 9.94572e-05 0.0 
0.92537 0.127241 0.0 
0.31868 -0.109708 0.0 
0.0851795 0.00190439 0.0 
1.65091e-282 1.79379e-282 0.0 
0.0396724 0.00661506 0.0 
0.312638 0.267053 0.0 
1.02478 -0.106819 0.0 
0 0 0.0 
1.00753 0 0.0 
0.661966 0.27805 0.0 
0.0205907 -0.00152423 0.0 
0.0429153 0.0637112 0.0 
0.000241775 2.55456e-06 0.0 
1.00862 -0.00120855 0.0 
0.261042 -0.0288947 0.0 
0.0534606 -0.00184389 0.0 
4.96628e-209 -1.77778e-210 0.0 
0.0964926 0.00694511 0.0 
1.24928e-05 -2.01299e-05 0.0 
0.221628 -0.0120322 0.0 
0 0 0.0 
0.0182859 0.00115905 0.0 
1.00794 4.4844e-05 0.0 
0 0 0.0 
0.759748 0.19883 0.0 
0.716453 -0.267412 0.0 
0 0 0.0 
0.433152 0.110566 0.0 
-8.33869e-89 4.99481e-90 0.0 
1.00016 -0.000660611 0.0 
0.306259 0.164387 0.0 
0.606076 0.314858 0.0 
0 0 0.0 
0.0684555 0.00188034 0.0 
0.460432 -0.19247 0.0 
0.0361349 -0.00386656 0.0 
0.00942616 0.000740247 0.0 
0.767776 -0.334173 0.0 
1.00912 0.000112761 0.0 
0.584452 -0.00109197 0.0 
3.73044e-26 7.51347e-27 0.0 
1.19578e-05 1.47269e-06 0.0 
1.00868 -0.000962469 0.0 
0 0 0.0 
-1.05732e-26 -1.18275e-26 0.0 
1.04997 0.0736863 0.0 
0.82516 -0.252512 0.0 
0.849878 -0.119509 0.0 
0.00226869 -0.000189644 0.0 
1.01204 -0.00198821 0.0 
0.157576 -0.016241 0.0 
1.21935e-51 3.62145e-52 0.0 
0.714002 0.336507 0.0 
0.881136 0.200547 0.0 
1.0405 -0.197716 0.0 
1.01076 0.270803 0.0 
0.238637 -0.255094 0.0 
0.395777 0.0506896 0.0 
0.218903 0.0202378 0.0 
1.01169 5.23508e-05 0.0 
1.68333e-05 -7.06569e-05 0.0 
-2.24182e-34 -4.97323e-35 0.0 
0.00175266 -0.000271602 0.0 
0.540568 0.299495 0.0 
0.00244344 -0.000231177 0.0 
0.401222 0.0743945 0.0 
0.0776291 0.00327436 0.0 
0.344364 -0.0253576 0.0 
6.03793e-06 9.10298e-08 0.0 
0.503441 0.00932134 0.0 
0.909047 -0.00157255 0.0 
0.70921 -0.378234 0.0 
1.00002 0.00108102 0.0 
0.932569 -0.0442694 0.0 
0.07875 -0.00605259 0.0 
0.773991 0.00052956 0.0 
1.00857 0.000168532 0.0 
0.772491 -0.286749 0.0 
0.226964 0.00976789 0.0 
0.831804 0.00161966 0.0 
0.158102 0.00573809 0.0 
1.00896 0.000289227 0.0 
0.902548 -0.138201 0.0 
0.818382 0.365684 0.0 
0.0389756 0.00251222 0.0 
0.00643031 5.68579e-05 0.0 
0.969616 0.303365 0.0 
0.0661991 -0.00144665 0.0 
0.710913 0.271032 0.0 
1.00901 -0.000736241 0.0 
1.00931 0.00156002 0.0 
0.276109 -0.347223 0.0 
0.377396 -0.00114482 0.0 
1.00989 0.00121819 0.0 
0.675812 0.241409 0.0 
1.00893 -0.000243163 0.0 
0.706817 0.375559 0.0 
0.386012 -0.130652 0.0 
0 0 0.0 
5.99566e-06 3.73559e-07 0.0 
0.72685 0.308551 0.0 
0.208787 -0.157588 0.0 
1.00191 -0.00278916 0.0 
0.344786 -0.0247483 0.0 
1.00868 -0.00088677 0.0 
0.608265 -0.292406 0.0 
0.00634717 -0.00031794 0.0 
0.7617 0.305375 0.0 
0 0 0.0 
0.165258 -0.00271549 0.0 
9.89795e-07 1.17455e-08 0.0 
0.921179 0.0367485 0.0 
0.0137025 0.00018824 0.0 
0.0328307 -0.0117016 0.0 
0.423972 -0.124083 0.0 
0.37808 0.010375 0.0 
0.20227 0.00442393 0.0 
0.579521 -0.433913 0.0 
1.04873 -0.144796 0.0 
0.175938 0.0639537 0.0 
0.448223 -0.100738 0.0 
0.540593 -0.0343462 0.0 
1.009 -0.00124199 0.0 
0.0393369 -0.000949715 0.0 
0.068627 -0.00434054 0.0 
0.49571 0.105281 0.0 
0.439075 0.0246386 0.0 
0.94183 -0.176686 0.0 
0.126406 0.0780169 0.0 
0.21533 -0.00587495 0.0 
1.00159 0.00190063 0.0 
1.00681 0.256186 0.0 
-1.92678e-76 5.2744e-78 0.0 
0.242783 0.0277073 0.0 
0.019082 -0.0105462 0.0 
1.00885 -0.0011758 0.0 
0 0 0.0 
1.01885 -0.261478 0.0 
0.748256 0.27779 0.0 
0.149764 0.0173207 0.0 
-6.48672e-37 -1.74266e-38 0.0 
1.04228 0.0990114 0.0 
1.01384 0.00277438 0.0 
4.39104e-05 2.94474e-07 0.0 
0.028318 -0.000261452 0.0 
0.768392 0.366576 0.0 
0.74654 0.0633623 0.0 
0.864366 0.35443 0.0 
0.00892026 -0.000129926 0.0 
0.81443 0.356773 0.0 
1.11455e-06 6.32718e-08 0.0 
1.02877 -0.0383178 0.0 
0.94267 -0.334253 0.0 
0.93447 -0.23511 0.0 
0.745632 -0.0902627 0.0 
1.01077 -0.000229713 0.0 
0.981327 0.00743589 0.0 
0.869065 -0.028224 0.0 
0 0 0.0 
1.00973 0.00373658 0.0 
1.07059 -0.027116 0.0 
0.0155604 -0.000418036 0.0 
0.408969 -0.00310721 0.0 
0.0456853 -0.0097893 0.0 
0.810314 0.12717 0.0 
1.00263 -0.00303382 0.0 
0.454223 -0.0486879 0.0 
0.110796 0.00431625 0.0 
0.0108349 -7.37828e-05 0.0 
0.000237199 1.94252e-05 0.0 
0.497082 -0.353796 0.0 
-1.02633e-24 1.65867e-24 0.0 
1.00909 0.000345803 0.0 
0.00732442 0.000626021 0.0 
0.697425 -0.448725 0.0 
0.767316 0.0874496 0.0 
0.139197 0.00154054 0.0 
0.185934 -0.0409012 0.0 
0.00244234 0.0001634 0.0 
0.521483 -0.0907919 0.0 
0.0871503 0.00664608 0.0 
0.0605161 -0.016132 0.0 
0.670859 0.109714 0.0 
1.00782 -0.000181576 0.0 
1.00044 0.00524391 0.0 
4.22058e-214 -6.00863e-215 0.0 
1.08581 -0.180431 0.0 
1.01062 0.00166637 0.0 
-1.36724e-16 -1.60786e-17 0.0 
1.0113 -0.00102614 0.0 
0.0436138 -0.0167653 0.0 
0.59047 0.080471 0.0 
2.21035e-11 1.15134e-11 0.0 
0.985102 -0.029685 0.0 
0.00848191 0.000562116 0.0 
0.943091 -0.000489661 0.0 
0.347794 0.0877874 0.0 
0 0 0.0 
0.854244 0.254699 0.0 
0.118917 0.0278124 0.0 
0.620334 0.0651492 0.0 
1.00871 -0.0010742 0.0 
0.482454 -0.0215469 0.0 
0.0487193 -0.00322296 0.0 
0.020939 -0.0102043 0.0 
0.322794 0.107964 0.0 
0.000276689 -4.31829e-05 0.0 
0.845932 -0.0288365 0.0 
1.00805 -0.095467 0.0 
1.02868 -0.142451 0.0 
0.02384 0.00485113 0.0 
0.021517 -0.000234167 0.0 
0.8292 -0.362272 0.0 
-9.32741e-16 3.9464e-17 0.0 
0.00196176 -0.000231328 0.0 
1.00947 -0.294942 0.0 
-1.45971e-14 1.77095e-15 0.0 
0.982118 0.0795877 0.0 
0 0 0.0 
0.98873 -0.00120169 0.0 
1.12776 0.0490312 0.0 
0.3222 0.166836 0.0 
-7.96086e-52 -2.33709e-52 0.0 
0.229345 -0.0352629 0.0 
0.701138 -0.294979 0.0 
0.00972904 0.000899268 0.0 
0.334805 -0.34948 0.0 
0.579358 -0.00155796 0.0 
0.244845 0.0376615 0.0 
0.0295941 0.0011197 0.0 
0.0260128 0.0066745 0.0 
1.00866 0.000468652 0.0 
0.990548 0.00259262 0.0 
1.0099 0.000129289 0.0 
0.107992 0.0159788 0.0 
0.726873 0.19121 0.0 
1.00747 0 0.0 
0.677571 0.199139 0.0 
0.665374 -0.216164 0.0 
0.500325 0.151843 0.0 
0.226798 0.0235392 0.0 
0 0 0.0 
0.050394 0.00868494 0.0 
1.03576 -0.27317 0.0 
0.594875 -0.0752122 0.0 
0.947725 -0.00897095 0.0 
0.536557 -0.0626079 0.0 
1.00961 -0.044265 0.0 
1.09267 -0.0937226 0.0 
1.00979 0.000340863 0.0 
0 0 0.0 
0.569882 0.0908903 0.0 
0.995111 -0.0241713 0.0 
1.51095e-05 -7.00713e-07 0.0 
3.98509e-13 -8.45439e-14 0.0 
0 0 0.0 
-8.45343e-92 1.02493e-92 0.0 
0 0 0.0 
1.00652 0 0.0 
1.00926 0.0314695 0.0 
0.595454 -0.025788 0.0 
1.31101e-10 5.13208e-12 0.0 
0.0342906 0.00779143 0.0 
1.00912 -0.00165862 0.0 
1.00653 -6.80347e-05 0.0 
0 0 0.0 
0.531873 0.0185548 0.0 
0.12997 -0.0154698 0.0 
0.647611 -0.0460412 0.0 
0.00012532 1.52e-06 0.0 
0.117429 -0.0214138 0.0 
1.00003 0.000515516 0.0 
0.745505 -0.428577 0.0 
0.0610411 -0.00135737 0.0 
-1.10841e-178 2.35788e-179 0.0 
0.0450179 0.0150585 0.0 
0.909184 0.0106343 0.0 
0.101714 0.0363742 0.0 
0.120122 0.0433004 0.0 
1.0088 -5.7166e-05 0.0 
0.465839 -0.00834669 0.0 
0.00747985 0.000172172 0.0 
0.382226 0.197684 0.0 
0.0329881 -0.0150248 0.0 
1.00753 4.93475e-05 0.0 
2.10263e-09 2.56091e-10 0.0 
0.802423 -0.352081 0.0 
0.0258568 -0.000420815 0.0 
0.00553222 0.000354313 0.0 
0.263074 -0.0997165 0.0 
0.00634501 -0.000492759 0.0 
1.00788 5.78495e-05 0.0 
1.00693 -0.000417078 0.0 
0.644936 -0.00927091 0.0 
0.00407816 0.00028087 0.0 
0.84982 0.0141821 0.0 
0 0 0.0 
1.00961 0.000230824 0.0 
0.6867 -0.0634898 0.0 
0.535598 -0.0306909 0.0 
0.00938847 0.000318686 0.0 
1.00051 0.000592999 0.0 
0.415903 -0.0387206 0.0 
1.01032 0.00138576 0.0 
4.7985e-59 -7.4561e-59 0.0 
0.0152934 -0.000578379 0.0 
0 0 0.0 
0.0362132 -0.0102011 0.0 
1.00005 0.00162581 0.0 
0.316395 -0.0273438 0.0 
0.968361 -0.341569 0.0 
0 0 0.0 
0.0148528 -0.000800385 0.0 
-1.39559e-271 -5.87645e-273 0.0 
0.00586887 0.000773739 0.0 
0.385316 -0.0471672 0.0 
0.849912 0.330564 0.0 
1e-307 0 0.0 
0.0228888 -0.00103636 0.0 
1.0092 0.000228921 0.0 
0.974707 0.17537 0.0 
0.8393 0.349299 0.0 
0.56144 -0.208016 0.0 
0.80625 0.165657 0.0 
-4.55594e-185 -3.60754e-186 0.0 
1.00906 -0.000714991 0.0 
1.00815 -0.000669308 0.0 
1.01104 -0.00134211 0.0 
0.24377 0.238171 0.0 
1.00001 -0.00053091 0.0 
0.190868 -0.0215895 0.0 
0.00357406 0.000382905 0.0 
0.616178 -0.116812 0.0 
0.988056 -0.00590659 0.0 
3.90136e-07 3.24604e-08 0.0 
0.563607 0.0549595 0.0 
0.837817 0.0259807 0.0 
-1.69554e-16 -1.30743e-17 0.0 
0.158236 -0.251888 0.0 
0.0061313 0.000588916 0.0 
1.00911 0.000359703 0.0 
0.010745 0.000122576 0.0 
0.290624 0.0583793 0.0 
0 0 0.0 
-3.07708e-75 -6.64869e-77 0.0 
1.00024 -0.00065137 0.0 
0 0 0.0 
0.655833 0.00881444 0.0 
0.0467892 0.000516576 0.0 
0.843532 0.342096 0.0 
0.0447324 0.0078975 0.0 
2.81129e-146 2.87531e-148 0.0 
0.353963 0.0903638 0.0 
0.742529 0.302051 0.0 
0.619258 0.0108291 0.0 
1.00817 -0.000429705 0.0 
1.00077 -0.150378 0.0 
0.979414 -0.0566741 0.0 
1.00847 0.00022183 0.0 
1.0082 -0.00054745 0.0 
0.0764292 0.0157269 0.0 
0.859332 -0.40239 0.0 
1.52278e-155 1.55745e-157 0.0 
1.00802 7.19498e-05 0.0 
0.00844344 6.93796e-05 0.0 
3.24546e-05 2.06711e-06 0.0 
0.0283687 -0.00859754 0.0 
0.0313203 -0.0104344 0.0 
0.677979 -0.367377 0.0 
1.00492 0.00113382 0.0 
-6.37975e-302 4.13531e-303 0.0 
0.593649 -0.143351 0.0 
3.51572e-254 4.98095e-255 0.0 
0.281925 -0.0314583 0.0 
0.632268 0.285534 0.0 
0.810012 0.00140408 0.0 
1.00923 0.000223938 0.0 
0.999324 0.00255765 0.0 
1.00055 0.00428729 0.0 
0.0715764 0.0065348 0.0 
0 0 0.0 
0.999949 -0.000484911 0.0 
0.279909 0.077911 0.0 
3.00059e-239 1.01814e-239 0.0 
0.492766 -0.00178299 0.0 
1.03797 0.0982535 0.0 
0.311636 -0.262244 0.0 
0.890383 -0.153313 0.0 
1.00498 -0.00288424 0.0 
0.151638 0.00816476 0.0 
0.470169 -0.02569 0.0 
1.00896 -0.00113698 0.0 
0.0369516 -0.00829444 0.0 
0.013261 -0.00458834 0.0 
0.129232 0.00247147 0.0 
0.0081205 0.000270624 0.0 
0.232829 -0.141799 0.0 
0.858076 -0.0045604 0.0 
1.00363 0 0.0 
0.00642513 0.000172453 0.0 
0.122786 0.0167869 0.0 
0.0300913 -0.0129754 0.0 
0.0064936 9.94735e-06 0.0 
0.49404 0.00771312 0.0 
9.86277e-51 -1.53252e-50 0.0 
0.494623 0.235607 0.0 
1.00979 0.000306702 0.0 
0.0631981 -0.0129254 0.0 
0.0130913 0.000728363 0.0 
3.47068e-103 2.26205e-103 0.0 
0.884205 -0.0145659 0.0 
0.553031 0.149694 0.0 
0.814227 0.351409 0.0 
1.01051 0.00755339 0.0 
0.998867 -0.000145855 0.0 
0.00141213 -6.20892e-05 0.0 
1.00702 -0.000143755 0.0 
0 0 0.0 
0.683566 0.00839734 0.0 
0.994346 -0.181342 0.0 
1.00835 0.000180065 0.0 
0.0234435 -0.00437299 0.0 
0.0524707 0.000457281 0.0 
0.849858 -0.0555738 0.0 
0.142926 -0.120749 0.0 
0 0 0.0 
-5.70798e-200 1.21303e-200 0.0 
0.0254496 -0.00737636 0.0 
1.01157 0.000795496 0.0 
1.00986 0.000728467 0.0 
1.00388 0.00268406 0.0 
0.0409337 -2.9589e-05 0.0 
0.656081 0.000789605 0.0 
0.186839 -0.00935133 0.0 
0.906414 -0.391283 0.0 
1.00763 0.000187037 0.0 
0.838334 -0.331755 0.0 
0.12152 0.0109796 0.0 
0.115336 0.00822195 0.0 
1.00693 -0.000214278 0.0 
1.01511 0.00245577 0.0 
-3.0215e-19 -5.74763e-20 0.0 
0.78409 -0.277383 0.0 
0.0284418 5.74483e-05 0.0 
0.0313648 -0.0142176 0.0 
0.0138923 -0.00433509 0.0 
0.0294484 0.00916474 0.0 
0.793688 0.0488056 0.0 
0.0033551 1.50993e-05 0.0 
5.78148e-06 -8.98251e-06 0.0 
1.03245 -0.145519 0.0 
0.15619 0.0224906 0.0 
1.00798 0.00201791 0.0 
0.849439 -0.0209055 0.0 
0.0026615 -0.000274632 0.0 
1.08821 0.110225 0.0 
0.837159 -0.419481 0.0 
0.0155093 -0.060784 0.0 
0.0740637 0.015835 0.0 
0.836278 -0.418317 0.0 
-2.17687e-186 -1.22164e-187 0.0 
0.0479962 -0.016652 0.0 
-3.59884e-25 -3.15906e-26 0.0 
0.0709509 0.00730338 0.0 
0.00349777 -0.000505018 0.0 
0.999954 0.0014286 0.0 
0.999616 -0.000482893 0.0 
9.9637e-06 -1.46705e-06 0.0 
2.6238e-07 1.32189e-08 0.0 
0.0233165 -0.0109317 0.0 
0.506738 0.278248 0.0 
1.00945 0.0167064 0.0 
0.999985 -0.000595612 0.0 
0.77492 0.0633341 0.0 
0.571609 0.0110863 0.0 
0.6535 -0.353321 0.0 
0.832652 -0.353809 0.0 
0.130305 -0.0197686 0.0 
0.124417 0.020122 0.0 
0.0938612 -0.0109409 0.0 
0.0793065 -0.0183297 0.0 
0.999907 -0.00071598 0.0 
0.161766 -0.00535896 0.0 
0.910158 -0.0270972 0.0 
0.695772 -0.158843 0.0 
0 0 0.0 
0.51639 -0.0779441 0.0 
0.953282 -0.00386966 0.0 
1.11954 0.139781 0.0 
1.00425 -0.00414676 0.0 
0.797105 -0.260708 0.0 
0.746916 0.0388401 0.0 
0.839529 0.147771 0.0 
1.12611e-43 3.34448e-44 0.0 
0.129943 0.0281743 0.0 
0.899995 0.00140509 0.0 
0.435208 -0.147691 0.0 
0.137506 -0.000295042 0.0 
0.568084 -0.0643449 0.0 
1.10562 -0.00107497 0.0 
0.0905582 0.0179979 0.0 
0.0134678 0.000941634 0.0 
0.0900588 0.0109521 0.0 
0 0 0.0 
0.00693269 0.00666997 0.0 
1.00505 -0.000382366 0.0 
0.318836 0.132293 0.0 
0.047475 -0.000290051 0.0 
0 0 0.0 
0.965425 -0.00396612 0.0 
1.00855 0.000245424 0.0 
1.11721 0.097834 0.0 
1.01496 0.0122935 0.0 
0.901529 0.290218 0.0 
1.03091 0.00635418 0.0 
1.008 0.000197933 0.0 
0.999209 -0.00156632 0.0 
0.20903 0.0256397 0.0 
0.584629 -0.037561 0.0 
0.314038 0.0151274 0.0 
1.01076 -0.00229764 0.0 
0.0183274 0.000139783 0.0 
0.0968417 0.0160322 0.0 
0.252649 0.137552 0.0 
-2.44114e-96 2.95982e-97 0.0 
1.0159 -0.00305566 0.0 
0.00346933 0.000678367 0.0 
0.0800798 -0.0121563 0.0 
0 0 0.0 
1.00904 -0.00130842 0.0 
0.00795019 0.000355424 0.0 
1.00816 0.000161218 0.0 
0.700526 -0.0386926 0.0 
1.01256 0.000500195 0.0 
0.00666567 3.17747e-05 0.0 
1.00706 -0.000308574 0.0 
0 0 0.0 
0.0523348 -0.0137255 0.0 
1.0899 -0.0453664 0.0 
0.0575102 0.00985834 0.0 
1.23784e-237 -1.08046e-238 0.0 
1.00924 -0.00685814 0.0 
0 0 0.0 
1.00965 -0.000799963 0.0 
0.483044 -0.00505218 0.0 
0.75558 0.349497 0.0 
0.00110553 -0.000181898 0.0 
0.363404 -0.0146603 0.0 
1.05185 -0.04881 0.0 
0.0553048 -0.0168736 0.0 
0.695117 0.0670051 0.0 
0.999686 -0.00198148 0.0 
0.875389 0.327986 0.0 
0.00931962 0.000672679 0.0 
1.00232 0.00490131 0.0 
0.696184 -0.338833 0.0 
1.00819 -0.000575626 0.0 
-2.50767e-88 8.15274e-89 0.0 
1.00678 0.00330485 0.0 
1.00925 -0.000966869 0.0 
1.00838 0.000411062 0.0 
0 0 0.0 
1.00246 -0.000529583 0.0 
0.886744 0.0161715 0.0 
-1.36688e-15 -1.10215e-16 0.0 
1.00845 0.000220817 0.0 
0.923937 -0.280785 0.0 
0.00736489 0.000822603 0.0 
0.78048 -0.323259 0.0 
0.175778 0.0126135 0.0 
0.0072755 7.27548e-05 0.0 
1.00679 -0.00371473 0.0 
0.0110144 -0.00292824 0.0 
1.00001 -0.000180149 0.0 
0.0880963 -0.0179554 0.0 
0.286968 -0.0281729 0.0 
0 0 0.0 
0.991376 -0.260304 0.0 
0.0111174 0.00098533 0.0 
3.47277e-09 4.28495e-10 0.0 
0.767697 -0.417191 0.0 
0.998791 -0.0040587 0.0 
0.0218132 0.00710008 0.0 
1.01041 -0.00270041 0.0 
0.977531 -0.0405686 0.0 
-3.93616e-199 -1.66816e-200 0.0 
8.21253e-08 -1.45408e-08 0.0 
1.02613 0.216933 0.0 
0.546071 -0.0865012 0.0 
0.58409 0.114144 0.0 
0.238362 0.00269734 0.0 
0 0 0.0 
0.00865483 0.00156094 0.0 
1.00056 -0.000239007 0.0 
0.00724738 0.000509802 0.0 
0.745467 -0.0450961 0.0 
0.683871 0.36721 0.0 
0.142486 0.0635332 0.0 
0.999996 -0.000174373 0.0 
0.994157 0.00400953 0.0 
0.555924 -0.039312 0.0 