<VTKFile type="UnstructuredGrid" version="0.1" byte_order="LittleEndian">
  <UnstructuredGrid>
    <Piece NumberOfPoints="12654" NumberOfCells="25147">
      <Points>
        <DataArray type = "Float64" NumberOfComponents="3" format="ascii">
0 0 0.0 
14 0 0.0 
14 8 0.0 
0 8 0.0 
4.16782 4.09801 0.0 
4.53741 3.97648 0.0 
4.97294 4.02628 0.0 
3.9629 4.03144 0.0 
0 7.00555 0.0 
4.27592 4.05022 0.0 
4.25117 4.06605 0.0 
4.1592 4.06546 0.0 
4.00938 3.99278 0.0 
12.5949 1.78564 0.0 
4.02519 4.02675 0.0 
4.36236 4.07018 0.0 
4.12706 4.05197 0.0 
4.42736 4.06743 0.0 
4.08492 3.93693 0.0 
4.10288 3.94742 0.0 
10.1469 3.82192 0.0 
0.490237 2.82729 0.0 
4.40041 3.95585 0.0 
1.72266 2.31086 0.0 
4.05477 4.02613 0.0 
4.36723 4.05555 0.0 
4.35541 3.94574 0.0 
3.98465 3.9804 0.0 
8.28818 5.78715 0.0 
4.37976 3.94406 0.0 
5.00418 4.00022 0.0 
4.00922 3.99881 0.0 
4.02803 4.04844 0.0 
4.19819 4.07469 0.0 
4.01927 3.99345 0.0 
4.18615 4.04815 0.0 
4.11094 4.03801 0.0 
3.8164 5.87561 0.0 
4.08645 4.0475 0.0 
3.98196 3.98783 0.0 
5.00749 4.02107 0.0 
4.36023 4.05917 0.0 
4.44815 3.96475 0.0 
5.00355 3.99859 0.0 
4.8791 3.99289 0.0 
4.25698 3.95918 0.0 
3.00009 3.79131 0.0 
4.05937 4.03931 0.0 
4.23696 3.96765 0.0 
4.29383 3.98141 0.0 
5.02091 3.98133 0.0 
4.03403 4.05256 0.0 
4.01647 3.99236 0.0 
5.02315 4.00601 0.0 
4.84187 4.69807 0.0 
4.00443 4.00062 0.0 
4.10761 4.0532 0.0 
4.06646 4.03799 0.0 
4.59221 4.05661 0.0 
4.29475 3.968 0.0 
3.05926 1.41544 0.0 
5.14837 4.14489 0.0 
5.00785 4.00312 0.0 
10.8833 7.73481 0.0 
14 6.11123 0.0 
4.72718 3.98508 0.0 
3.96293 3.99513 0.0 
4.04956 3.95606 0.0 
9.66624 6.70196 0.0 
4.12386 4.05383 0.0 
4.37272 3.96527 0.0 
3.99922 3.99464 0.0 
5.03684 4.01469 0.0 
13.0749 0.735961 0.0 
4.0843 4.05004 0.0 
14 5.21618 0.0 
12.5251 6.23333 0.0 
4.23781 3.98295 0.0 
5.60784 8 0.0 
3.99976 3.99731 0.0 
4.02894 4.02569 0.0 
5.00991 4.10716 0.0 
4.68663 3.98376 0.0 
5.00166 3.98677 0.0 
4.24422 7.49665 0.0 
4.35343 3.94951 0.0 
4.95042 4.10252 0.0 
4.12213 3.94584 0.0 
3.85467 4.0005 0.0 
4.23647 3.95137 0.0 
5.00128 3.99352 0.0 
4.08373 4.05666 0.0 
4.59045 4.07283 0.0 
4.47783 4.03911 0.0 
4.27852 0 0.0 
5.04845 4.04311 0.0 
4.97197 3.99705 0.0 
4.13186 4.07768 0.0 
4.49093 4.06327 0.0 
5.0032 4.00257 0.0 
4.00072 3.98403 0.0 
4.13817 3.965 0.0 
4.60717 3.98025 0.0 
5.00003 3.99572 0.0 
4.44039 3.97292 0.0 
4.9394 3.9961 0.0 
4.35971 3.97 0.0 
4.1741 4.07586 0.0 
8.18253 0.218316 0.0 
3.7391 1.31631 0.0 
1.26284 5.53443 0.0 
8.41556 7.83399 0.0 
4.37591 4.06855 0.0 
4.06866 3.96535 0.0 
3.91267 2.38613 0.0 
4.02873 4.0411 0.0 
3.82882 4.24177 0.0 
4.07625 3.47005 0.0 
4.1187 3.93345 0.0 
4.84057 3.99055 0.0 
4.12124 3.98374 0.0 
3.9961 4.01386 0.0 
1.98091 6.60228 0.0 
4.30844 3.9691 0.0 
4.03274 3.93138 0.0 
4.99458 4.03862 0.0 
4.57586 3.97857 0.0 
4.02244 4.02798 0.0 
4.99983 4.00536 0.0 
0 1.4212 0.0 
4.96026 4.00768 0.0 
6.50434 4.116 0.0 
3.96344 3.97406 0.0 
4.26002 4.06772 0.0 
4.00433 4.017 0.0 
5.01331 3.98969 0.0 
4.84374 4.09407 0.0 
4.19161 3.91927 0.0 
5.05415 4.0144 0.0 
4.84083 3.98406 0.0 
4.12613 3.92733 0.0 
3.94755 4.62611 0.0 
4.01543 3.98175 0.0 
4.13994 3.92182 0.0 
4.98285 4.00415 0.0 
4.05604 3.99252 0.0 
4.01887 3.96776 0.0 
4.16991 4.04935 0.0 
4.17721 4.06988 0.0 
4.52179 3.96592 0.0 
4.33952 4.0742 0.0 
3.99252 4.00665 0.0 
4.46495 3.93204 0.0 
4.00943 4.02943 0.0 
4.04175 3.99348 0.0 
4.04207 3.9603 0.0 
4.21873 4.06442 0.0 
5.89776 3.86311 0.0 
4.29092 3.96891 0.0 
4.05784 3.98854 0.0 
5.06886 4.12388 0.0 
4.19057 4.05281 0.0 
4.10081 3.94382 0.0 
4.06697 3.96103 0.0 
6.24681 4.0881 0.0 
5.00368 4.02219 0.0 
0.912073 2.29827 0.0 
4.9548 3.9827 0.0 
4.1868 4.12646 0.0 
4.15753 4.10167 0.0 
3.96821 4.02723 0.0 
5.04088 3.99921 0.0 
3.96476 4.03852 0.0 
0.483696 5.24337 0.0 
3.97233 4.04194 0.0 
5.02652 4.03028 0.0 
4.02423 3.98532 0.0 
4.00621 4.04562 0.0 
1.12644 3.34247 0.0 
3.92251 4.00785 0.0 
4.97487 3.99724 0.0 
4.83299 3.99062 0.0 
4.86238 4.02434 0.0 
4.0775 3.9263 0.0 
3.98931 4.01522 0.0 
4.11287 4.07293 0.0 
4.11863 4.05829 0.0 
5.04007 4.02119 0.0 
4.67274 4.04973 0.0 
13.2653 2.91651 0.0 
4.00756 4.02287 0.0 
4.35485 4.07122 0.0 
4.23103 3.92099 0.0 
4.98371 4.01321 0.0 
4.79102 4.05549 0.0 
4.44335 4.06696 0.0 
5.01179 3.96717 0.0 
4.80153 4.05864 0.0 
3.93068 3.97134 0.0 
5.01913 4.00381 0.0 
8.76515 4.32805 0.0 
4.10608 4.02928 0.0 
4.2135 4.06492 0.0 
9.70989 7.75915 0.0 
4.03267 4.02146 0.0 
4.02341 4.03456 0.0 
4.9109 4.01593 0.0 
4.52724 7.41561 0.0 
5.05919 4.01855 0.0 
2.15923 7.15628 0.0 
4.20849 4.0501 0.0 
4.60701 3.95862 0.0 
4.01704 4.0599 0.0 
4.09884 4.05321 0.0 
5.0468 2.13587 0.0 
7.18887 6.80823 0.0 
1.24078 0.550265 0.0 
9.10545 7.45594 0.0 
2.38032 0.204862 0.0 
4.13394 4.05674 0.0 
4.2625 3.98267 0.0 
4.01361 3.98052 0.0 
4.01517 4.03055 0.0 
3.99882 3.99972 0.0 
4.06428 4.00921 0.0 
5.0035 4.00937 0.0 
3.14076 6.00803 0.0 
4.05784 3.9739 0.0 
3.99908 3.98836 0.0 
6.64228 4.06796 0.0 
3.99803 4.00953 0.0 
6.41134 3.77262 0.0 
0.958544 0 0.0 
4.21507 3.9482 0.0 
4.19583 4.0443 0.0 
4.97222 4.02124 0.0 
4.17579 4.06295 0.0 
13.6383 6.81874 0.0 
3.56132 3.61186 0.0 
4.08678 3.96894 0.0 
11.9473 3.59927 0.0 
5.1327 4.04445 0.0 
4.74046 4.02087 0.0 
4.0035 3.99928 0.0 
4.28206 4.06292 0.0 
4.34188 3.91914 0.0 
4.03413 4.05635 0.0 
9.37233 3.99479 0.0 
3.9901 3.98452 0.0 
5.19745 3.88865 0.0 
4.83816 3.97766 0.0 
4.83586 3.9914 0.0 
4.66254 4.04937 0.0 
3.9818 4.03131 0.0 
4.79045 4.03345 0.0 
4.1797 4.07872 0.0 
5.83812 4.00519 0.0 
4.78392 4.03584 0.0 
3.82841 7.78084 0.0 
4.67941 4.01821 0.0 
4.05432 4.08605 0.0 
13.2253 0 0.0 
11.554 4.11995 0.0 
4.5522 4.05989 0.0 
5.06347 3.99507 0.0 
3.99427 3.95532 0.0 
3.96029 4.05566 0.0 
4.03789 3.97231 0.0 
5.08198 4.04957 0.0 
5.02947 4.00625 0.0 
8.68168 8 0.0 
5.63104 7.16389 0.0 
4.20073 4.06513 0.0 
3.89555 4.17515 0.0 
4.73083 4.053 0.0 
13.4125 7.46568 0.0 
4.08711 3.98632 0.0 
3.99883 4.01382 0.0 
4.00597 4.01101 0.0 
5.182 4.1265 0.0 
3.98048 4.05294 0.0 
10.7396 5.6412 0.0 
4.52744 4.01576 0.0 
4.13386 4.04638 0.0 
3.98816 4.01224 0.0 
4.13781 4.0314 0.0 
4.7371 3.98535 0.0 
4.67821 4.04848 0.0 
3.99752 4.02893 0.0 
4.01884 3.99521 0.0 
4.17717 3.91274 0.0 
3.98628 3.99582 0.0 
4.03655 3.96298 0.0 
4.98756 3.96669 0.0 
4.01204 4.00974 0.0 
4.3175 3.96917 0.0 
4.88286 4.02156 0.0 
4.48034 3.97483 0.0 
4.25417 3.94489 0.0 
8.1554 7.24604 0.0 
4.00774 3.99043 0.0 
4.01079 4.01756 0.0 
10.1953 0.248119 0.0 
4.3171 4.12404 0.0 
4.00647 4.00449 0.0 
3.93549 3.94275 0.0 
4.36101 3.96991 0.0 
9.52987 5.94501 0.0 
5.10311 4.0306 0.0 
4.28205 4.09231 0.0 
0.839099 1.2823 0.0 
4.51726 4.06292 0.0 
4.48951 4.06379 0.0 
13.1041 6.21426 0.0 
4.2541 4.02822 0.0 
7.37021 6.10871 0.0 
1.52193 0 0.0 
4.43159 3.97265 0.0 
12.7073 7.78359 0.0 
4.07994 4.05153 0.0 
4.06319 3.96218 0.0 
4.44744 4.06602 0.0 
3.99714 3.98342 0.0 
6.13038 7.04111 0.0 
11.987 1.81349 0.0 
4.08765 3.96521 0.0 
4.21825 4.05616 0.0 
5.18793 4.05304 0.0 
4.6815 3.98308 0.0 
4.00862 3.98581 0.0 
3.98111 4.00805 0.0 
4.75195 4.03919 0.0 
3.99352 3.97666 0.0 
0.747562 5.69493 0.0 
4.65681 4.03718 0.0 
4.99691 3.99851 0.0 
4.27492 4.05293 0.0 
4.10308 3.95678 0.0 
3.99602 4.00219 0.0 
4.13822 3.95086 0.0 
4.50982 4.06252 0.0 
3.99123 4.03344 0.0 
4.05951 4.03727 0.0 
4.16365 3.96635 0.0 
3.98206 3.97395 0.0 
4.20513 4.08996 0.0 
4.4469 3.97252 0.0 
3.9551 4.02674 0.0 
4.17846 4.05751 0.0 
4.02402 4.04636 0.0 
11.9485 6.33148 0.0 
4.00375 4.03912 0.0 
4.50041 3.97489 0.0 
4.00697 4.0074 0.0 
3.99417 4.04189 0.0 
7.6181 7.09785 0.0 
4.14239 3.99721 0.0 
4.19737 4.06183 0.0 
3.99997 3.99241 0.0 
9.74554 4.28762 0.0 
5.0427 4.00784 0.0 
4.41083 4.08746 0.0 
3.98918 4.03714 0.0 
4.1327 4.06698 0.0 
4.01059 4.0357 0.0 
4.15711 4.2162 0.0 
4.09975 3.95651 0.0 
4.69402 3.97087 0.0 
4.00056 4.04248 0.0 
1.05155 0.371395 0.0 
2.48135 1.40934 0.0 
3.9896 4.00463 0.0 
3.99965 4.01129 0.0 
3.98613 3.98439 0.0 
4.502 4.06361 0.0 
4.00273 4.04763 0.0 
4.02428 4.00868 0.0 
4.04391 3.97745 0.0 
12.1828 3.17697 0.0 
2.31168 3.20636 0.0 
3.93782 3.96458 0.0 
4.50185 3.9759 0.0 
4.07377 3.94766 0.0 
4.89248 3.96365 0.0 
3.98643 3.99986 0.0 
4.98864 4.00361 0.0 
4.06849 3.97335 0.0 
3.99581 3.98523 0.0 
4.74823 4.06761 0.0 
4.76378 7.13556 0.0 
3.98481 4.00073 0.0 
3.97761 4.0047 0.0 
4.4909 3.97563 0.0 
11.3109 3.93123 0.0 
4.00988 4.0203 0.0 
3.99951 3.99562 0.0 
4.11077 4.06077 0.0 
3.98558 4.00796 0.0 
4.29601 4.16762 0.0 
5.9083 7.68968 0.0 
9.22238 5.4432 0.0 
4.00475 4.11356 0.0 
4.1809 4.05526 0.0 
4.27982 4.05867 0.0 
14 6.70716 0.0 
4.33199 4.09626 0.0 
4.99712 4.01383 0.0 
8.39153 6.28241 0.0 
3.84241 3.97211 0.0 
4.0722 4.0684 0.0 
3.98494 4.07875 0.0 
4.07076 4.03121 0.0 
4.70536 4.03652 0.0 
4.10927 3.95709 0.0 
3.99705 4.04765 0.0 
3.74242 4.14482 0.0 
4.13843 3.9353 0.0 
4.27037 4.11663 0.0 
5.0004 3.98388 0.0 
3.9934 4.00897 0.0 
4.85408 4.06805 0.0 
4.0432 4.12114 0.0 
4.02241 4.04141 0.0 
3.9487 4.03134 0.0 
4.14146 3.92894 0.0 
4.02972 4.05235 0.0 
11.4645 4.50287 0.0 
4.01777 4.04818 0.0 
4.01888 3.97004 0.0 
8.66912 5.53469 0.0 
4.0266 3.96232 0.0 
4.84885 5.80485 0.0 
4.10695 3.94953 0.0 
4.98999 4.00287 0.0 
4.38786 3.97193 0.0 
13.0074 4.46737 0.0 
4.99561 4.00163 0.0 
4.03778 3.99834 0.0 
4.35573 3.984 0.0 
4.03865 4.05465 0.0 
4.25938 3.9481 0.0 
11.4579 2.80198 0.0 
4.98817 4.01929 0.0 
4.27237 3.94803 0.0 
3.95357 4.06538 0.0 
4.34684 4.07811 0.0 
4.10175 3.95894 0.0 
4.52688 4.06218 0.0 
4.62173 3.87718 0.0 
12.8057 1.94595 0.0 
4.00572 3.98505 0.0 
5.13359 4.01589 0.0 
2.58289 0.566684 0.0 
4.12306 3.91939 0.0 
4.94591 3.99646 0.0 
3.99904 3.97967 0.0 
3.94862 4.04213 0.0 
6.58762 3.8926 0.0 
4.03555 4.04124 0.0 
4.00784 3.94746 0.0 
4.0867 4.04316 0.0 
4.08064 4.04365 0.0 
3.98638 3.96668 0.0 
4.23524 4.06773 0.0 
4.06135 4.06989 0.0 
8.94038 7.70202 0.0 
2.33056 5.57699 0.0 
5.1145 3.99248 0.0 
4.0344 3.97647 0.0 
4.48473 3.97471 0.0 
11.0273 3.21793 0.0 
10.8478 4.42307 0.0 
4.51895 4.06333 0.0 
3.97614 4.01755 0.0 
[...]
<PointData>
  <DataArray type = "Float64" Name="Vitesse" NumberOfComponents="3" format="ascii">
1 0 0.0 
1.00666 0 0.0 
1.00535 0 0.0 
1 0 0.0 
1.02901 0.172896 0.0 
0.00814097 7.9921e-05 0.0 
0.0663991 -0.00997052 0.0 
0.706536 0.0958625 0.0 
1 0 0.0 
0 0 0.0 
1.73036e-09 1.63618e-10 0.0 
0.306182 0.0420447 0.0 
0 0 0.0 
1.00817 0.000633823 0.0 
0.166067 0.0915996 0.0 
0.0311165 -0.000349919 0.0 
3.76431e-35 6.24635e-36 0.0 
0.00620672 -0.000225945 0.0 
1.0521 -0.186487 0.0 
0.825309 -0.109615 0.0 
0.940782 0.000356774 0.0 
0.999944 -0.000381813 0.0 
0.242173 0.00511109 0.0 
0.999934 -0.00228734 0.0 
0 0 0.0 
0 0 0.0 
0.414511 0.00298093 0.0 
0.657522 -0.286389 0.0 
1.00954 -0.00171759 0.0 
0.437914 0.00419036 0.0 
0.0198763 0.000742736 0.0 
0 0 0.0 
0.835956 0.358932 0.0 
0.430236 0.0517706 0.0 
0 0 0.0 
0 0 0.0 
0 0 0.0 
1.0094 0.00914664 0.0 
0.156197 0.0340115 0.0 
0.590538 -0.228837 0.0 
0.0598088 -0.0182588 0.0 
0 0 0.0 
0.120328 0.00400802 0.0 
0.0249509 0.00665582 0.0 
0.00413757 0.000367796 0.0 
0.178295 0.000553062 0.0 
0.987446 -0.00370569 0.0 
0.112369 0.0364651 0.0 
-1.12513e-12 -3.56802e-14 0.0 
1.82916e-73 8.7747e-75 0.0 
0.180681 0.0237591 0.0 
0.867906 0.348623 0.0 
0 0 0.0 
0.0458348 -0.00315256 0.0 
1.04114 -0.00041727 0.0 
1.79939e-90 1.69829e-90 0.0 
0.189701 0.0402601 0.0 
3.08935e-121 8.17414e-122 0.0 
0.00444444 -3.80498e-06 0.0 
0.0162674 0.00107228 0.0 
1.00339 -0.00363189 0.0 
0.947963 -0.045508 0.0 
0.0249229 -0.00484384 0.0 
1.00678 -0.000115081 0.0 
1.00692 -0.000997337 0.0 
0.0100622 0.000778871 0.0 
0.670869 -0.0829177 0.0 
0.933689 -0.234322 0.0 
1.00793 -0.000677462 0.0 
0.0715511 0.0133848 0.0 
0.0871492 0.00234935 0.0 
0.19263 -0.294171 0.0 
0.0619182 -0.00935294 0.0 
1.00725 0.000275149 0.0 
0.315144 0.0745663 0.0 
1.007 -0.00222464 0.0 
1.00732 -0.000697286 0.0 
0 0 0.0 
1.00951 0 0.0 
0.062064 -0.144962 0.0 
-3.6669e-26 -1.62139e-26 0.0 
0.736775 -0.0496482 0.0 
0.00417075 0.000374848 0.0 
0.125354 0.0175605 0.0 
1.00774 0.00124378 0.0 
0.347852 0.00369116 0.0 
0.684654 -0.0463801 0.0 
0.77536 -0.0837279 0.0 
0.8748 -0.0100224 0.0 
0.363107 -0.00542499 0.0 
0.0646813 0.0142426 0.0 
0.609997 0.162119 0.0 
0.189311 -0.0120932 0.0 
3.41966e-177 1.05659e-178 0.0 
1.00632 0 0.0 
0.197282 -0.0262367 0.0 
0.00708134 0.000516387 0.0 
0.853896 0.171541 0.0 
7.91396e-83 -4.94637e-84 0.0 
0.0149133 -0.00721614 0.0 
0.609888 -0.464554 0.0 
0.116857 -0.00373456 0.0 
0.00290082 0.000602777 0.0 
0.0433342 0.0107032 0.0 
0.00513484 0.000519387 0.0 
-1.8968e-11 -2.0703e-12 0.0 
0.0100334 0.000329035 0.0 
0.58128 0.0827578 0.0 
1.00851 6.36279e-05 0.0 
1.00575 -0.00368611 0.0 
0.999969 0.0020308 0.0 
1.00813 -0.00011572 0.0 
-1.13254e-14 -1.5756e-16 0.0 
0.416682 -0.0692318 0.0 
1.00795 -0.00978481 0.0 
0.730909 0.332168 0.0 
0.955392 0.0608425 0.0 
1.01706 -0.0416025 0.0 
1.01304 -0.131876 0.0 
0.00852357 0.000486131 0.0 
0 0 0.0 
0.350089 0.240217 0.0 
1.00145 0.00259045 0.0 
4.25034e-06 3.5721e-07 0.0 
1.01131 -0.257079 0.0 
0.145474 -0.0209056 0.0 
0.00537044 0.000719082 0.0 
0.334255 0.174491 0.0 
0.0160881 -0.00903528 0.0 
1 0 0.0 
-7.91479e-17 7.41141e-18 0.0 
0.847436 -0.00895035 0.0 
0.743021 -0.161573 0.0 
0.0314848 0.00192284 0.0 
0.318505 0.27224 0.0 
0.106079 0.0189017 0.0 
0.567477 -0.0377851 0.0 
1.02019 -0.0785645 0.0 
0.0773 -0.00644537 0.0 
0.0701921 0.00342304 0.0 
1.05282 -0.132423 0.0 
1.00895 0.0433128 0.0 
0.362895 -0.161752 0.0 
1.06754 -0.123119 0.0 
2.28996e-05 -4.09204e-06 0.0 
1e-307 1e-307 0.0 
0.892309 -0.368869 0.0 
0 0 0.0 
0.369226 0.0470662 0.0 
0.131609 0.00482069 0.0 
0.12229 0.00182816 0.0 
0.28293 0.0457749 0.0 
0.606323 0.00651908 0.0 
0.620689 0.370313 0.0 
-7.23789e-189 1.66892e-189 0.0 
0.893305 -0.246989 0.0 
4.17874e-40 5.25198e-41 0.0 
0.948596 0.011346 0.0 
-1.48507e-12 -4.56719e-14 0.0 
1e-307 1e-307 0.0 
0.857475 -0.0505907 0.0 
0 0 0.0 
0.915981 -0.13123 0.0 
0.625697 -0.115337 0.0 
0.744997 -0.010926 0.0 
0.0631525 -0.0176632 0.0 
0.999962 -0.000943177 0.0 
0.134367 0.0069711 0.0 
1.10875 0.165501 0.0 
1.06506 0.189319 0.0 
0.673157 0.0993156 0.0 
0.0836203 0.00726783 0.0 
0.723811 0.121187 0.0 
0.999961 0.000646931 0.0 
0.721312 0.155856 0.0 
0.108619 -0.0215038 0.0 
-2.48967e-120 7.62036e-121 0.0 
0.762273 0.327104 0.0 
0.999373 -0.000585363 0.0 
0.791798 -0.0107747 0.0 
0.00682248 0.000342955 0.0 
0.00463376 0.00057695 0.0 
0.00165434 -0.000164307 0.0 
1.0795 -0.201617 0.0 
0.454304 0.160164 0.0 
0.852521 0.192567 0.0 
0.317661 0.0596257 0.0 
0.0788135 -0.0142795 0.0 
0.0102549 -0.00113534 0.0 
1.0086 0.00106176 0.0 
0.473418 0.33134 0.0 
0.0511091 -0.000311844 0.0 
0.946945 -0.0517432 0.0 
0.0231922 -0.00473404 0.0 
0.14343 -0.0145672 0.0 
0.00963896 0.000183403 0.0 
0.309362 0.0262021 0.0 
0.178043 -0.01736 0.0 
0.807837 -0.0851698 0.0 
0.0434704 -0.00125904 0.0 
1.00868 -0.00268985 0.0 
0 0 0.0 
0.0455378 0.00699862 0.0 
1.00734 -0.000127776 0.0 
0 0 0.0 
0.609831 0.305146 0.0 
-1.66131e-24 2.47011e-25 0.0 
1.00852 0.00122809 0.0 
0.0873663 -0.00942586 0.0 
1.00202 0.00172475 0.0 
0 0 0.0 
0.252948 0.00914359 0.0 
0.849691 0.315213 0.0 
0.291322 0.0696757 0.0 
1.01297 -0.00310681 0.0 
1.00976 -0.00101 0.0 
1.0005 -0.000466655 0.0 
1.00776 -0.000336772 0.0 
1.00202 -0.00037625 0.0 
0.123133 0.0199215 0.0 
1e-307 1e-307 0.0 
0.517812 -0.255822 0.0 
0.602998 0.336262 0.0 
0.0491859 -0.117068 0.0 
1e-307 1e-307 0.0 
0.0254798 -0.0135962 0.0 
1.00447 0.00721674 0.0 
0.0659685 -0.0121507 0.0 
0.479722 -0.446415 0.0 
0.69621 -0.00798517 0.0 
0.198049 0.178615 0.0 
1.00625 0.00445704 0.0 
1.0003 0 0.0 
0.462597 -0.0135521 0.0 
0 0 0.0 
0.0443875 -0.00697156 0.0 
0.123615 0.0137091 0.0 
1.00619 -0.000591005 0.0 
0.980834 -0.0232609 0.0 
0.114693 -0.0133103 0.0 
1.01216 -0.000729719 0.0 
0.255953 -0.0228872 0.0 
-5.36418e-163 2.86947e-164 0.0 
1.46688e-96 1.38446e-96 0.0 
1.33976e-51 1.27526e-52 0.0 
0.847549 -0.0155214 0.0 
0.889525 0.345365 0.0 
0.750255 6.4964e-05 0.0 
0.595189 -0.347337 0.0 
0.908241 0.0323567 0.0 
0.131684 0.00607124 0.0 
-1.64396e-13 -1.04846e-14 0.0 
3.79111e-49 -2.27442e-50 0.0 
0.64642 0.182026 0.0 
9.35736e-08 -5.22216e-09 0.0 
0.637272 0.0892738 0.0 
0.447697 0.000939741 0.0 
0.00398548 -0.000266307 0.0 
1.00649 0.000596068 0.0 
0 0 0.0 
0.97785 0.280017 0.0 
1.00699 0 0.0 
0.864319 -0.00204685 0.0 
0.00419617 0.00011801 0.0 
0.121806 0.0111901 0.0 
0.852632 -0.296255 0.0 
0.782069 0.134861 0.0 
0.439761 -0.115975 0.0 
0.260484 -0.028835 0.0 
0.0533783 -0.00204601 0.0 
1.00789 0 0.0 
1.0103 0.000281181 0.0 
0.0983755 0.00950389 0.0 
0.931076 0.0857961 0.0 
0.0802137 -0.00805369 0.0 
1.0058 -0.000254789 0.0 
0 0 0.0 
0.311182 0.265118 0.0 
-6.42631e-137 -6.6582e-137 0.0 
0.871884 -0.0443375 0.0 
0.75965 0.198477 0.0 
1.00864 -0.000893385 0.0 
1.02234e-123 1.74805e-124 0.0 
0 0 0.0 
0.433162 0.110365 0.0 
0 0 0.0 
0.0119533 0.000790249 0.0 
0.00531028 -0.00069161 0.0 
0.606614 0.315016 0.0 
0 0 0.0 
1.07389 -0.0962761 0.0 
0.46058 -0.19283 0.0 
0.871694 -0.262626 0.0 
0.306107 0.0206486 0.0 
0 0 0.0 
0.00740004 0.000137075 0.0 
0.00267012 -0.000323626 0.0 
2.43082e-06 2.92582e-07 0.0 
0.490325 -0.00887872 0.0 
1.0085 -0.000572511 0.0 
0 0 0.0 
0.0883386 0.064779 0.0 
1.00795 6.28239e-05 0.0 
1.0498 0.073784 0.0 
3.7179e-100 4.18021e-100 0.0 
0.850328 -0.119577 0.0 
0.0114874 0.000518604 0.0 
1.00871 -0.0010881 0.0 
0.157066 -0.0164401 0.0 
0.643082 0.0457547 0.0 
1.00016 -0.000657205 0.0 
0.00898364 -0.000235909 0.0 
-3.00488e-27 -2.89833e-30 0.0 
1.00723 -0.000721538 0.0 
-1.50174e-147 -1.87035e-148 0.0 
1.0102 -0.00185287 0.0 
1.00081 0 0.0 
0.00392836 0.000313852 0.0 
1.00601 -9.51006e-05 0.0 
0.446284 0.118524 0.0 
0.614581 -0.117082 0.0 
0.00018523 -5.6125e-06 0.0 
0.621096 -0.44686 0.0 
1.01041 -0.000291727 0.0 
1.00848 0.000480669 0.0 
0.278954 -0.0315733 0.0 
2.16314e-61 2.95884e-62 0.0 
0.343862 -0.0255623 0.0 
0.00753867 0.00050812 0.0 
0.323157 -0.202592 0.0 
0.503541 0.00909378 0.0 
0.000597318 -6.15462e-05 0.0 
0.709516 -0.378582 0.0 
1.00001 0.0010893 0.0 
-5.64429e-130 1.80778e-131 0.0 
0.00524238 0.000484698 0.0 
0 0 0.0 
0.528914 -0.0576573 0.0 
0.133479 -0.0767173 0.0 
0.568685 -0.0447476 0.0 
7.27858e-65 -3.84489e-66 0.0 
0.647294 0.256023 0.0 
2.84027e-117 4.10408e-118 0.0 
0.0426748 -0.000847449 0.0 
0.716493 -0.267936 0.0 
0.809811 0.104838 0.0 
0.0140168 0.000527289 0.0 
0.719605 0.0614348 0.0 
1.04521e-56 9.13801e-58 0.0 
0.817698 0.364078 0.0 
1.00742 -0.00062571 0.0 
0.715372 0.336714 0.0 
0.010041 0.000246902 0.0 
1.07334e-108 4.17147e-109 0.0 
0.711206 0.270655 0.0 
1.00905 -0.000738516 0.0 
7.90342e-254 3.24417e-256 0.0 
1.82152e-40 2.49156e-41 0.0 
0.276103 -0.347542 0.0 
0.999579 -0.00296238 0.0 
0.0661339 -0.00162658 0.0 
0.378466 -0.00114672 0.0 
0.676081 0.241161 0.0 
0.544416 0.101738 0.0 
0.708255 0.375049 0.0 
1.06239 0.131407 0.0 
0.557655 -0.064093 0.0 
0.141787 0.00623803 0.0 
0.727243 0.307948 0.0 
1.00035 -0.000264566 0.0 
1.00191 -0.00279581 0.0 
0.344764 -0.0250609 0.0 
0.215313 0.216497 0.0 
0.608509 -0.292743 0.0 
0.00600806 -0.000292867 0.0 
0.761874 0.304719 0.0 
0 0 0.0 
1.2834e-08 -2.30586e-09 0.0 
1.00952 0.000370885 0.0 
0.99725 -0.00323226 0.0 
0.808918 -0.106605 0.0 
8.3794e-05 7.62247e-06 0.0 
0.96427 -0.185514 0.0 
0.294581 0.0129719 0.0 
0.42407 -0.124422 0.0 
0.00143276 -0.000140707 0.0 
9.95958e-05 -1.2123e-05 0.0 
0.579827 -0.434381 0.0 
0.229571 -0.0195481 0.0 
1.00947 0.00153833 0.0 
0.448326 -0.101053 0.0 
0.540652 -0.0346189 0.0 
2.87349e-10 4.11679e-11 0.0 
0.833845 0.00127204 0.0 
0.309187 0.221934 0.0 
0.138622 -0.241395 0.0 
0.496408 0.106366 0.0 
0.439088 0.0244153 0.0 
1.12607 0.0947421 0.0 
1.00971 9.89337e-06 0.0 
1.0094 -0.00140751 0.0 
0.916913 0.197253 0.0 
6.6722e-64 5.83332e-65 0.0 
0 0 0.0 
1.00613 -0.000673806 0.0 
0.635956 0.0284468 0.0 
0.0332059 -0.0117894 0.0 
1.009 -0.00128815 0.0 
0.888198 -0.0267756 0.0 
0.950411 0.282375 0.0 
0.839409 0.199467 0.0 
0 0 0.0 
3.90441e-51 -3.24923e-52 0.0 
0.485654 -0.0480329 0.0 
0.748436 0.277229 0.0 
0.940619 0.032517 0.0 
0.936245 -0.098326 0.0 
1.0418 0.098777 0.0 
0.151152 0.0176911 0.0 
0.294037 0.11444 0.0 
0.299656 -0.0256192 0.0 
0.97072 0.217199 0.0 
0.768406 0.364437 0.0 
0.746651 0.0631382 0.0 
1.01338 -0.110612 0.0 
0.863459 0.353901 0.0 
1.00957 -0.00153755 0.0 
0.814326 0.355914 0.0 
0.848948 -0.355322 0.0 
1.00941 -0.0016986 0.0 
0.943626 -0.334373 0.0 
1.01667 0.00388191 0.0 
0.746798 -0.0903399 0.0 
2.27119e-08 -5.01663e-09 0.0 
-1.45353e-20 -1.10472e-21 0.0 
1.01007 -0.000888805 0.0 
4.36028e-05 -6.98287e-06 0.0 
0 0 0.0 
2.16556e-71 1.85727e-72 0.0 
0.882991 0.340869 0.0 
0.415704 -0.00484221 0.0 
1.00976 0.000768045 0.0 
0.0460473 -0.00980469 0.0 
0.407558 -0.00313515 0.0 
0.809547 0.12699 0.0 
0.208915 0.00247222 0.0 
0.455225 -0.0476393 0.0 
0.00932056 8.88574e-06 0.0 
1.01602 0.00299577 0.0 
1.00843 0.000651251 0.0 
0.497312 -0.353876 0.0 
0.14209 -0.00425618 0.0 
1.00237 -0.00113265 0.0 
1.08921 -0.143458 0.0 
0.000706984 3.96751e-05 0.0 
0.697776 -0.449091 0.0 
0.767381 0.0872108 0.0 
0.865852 0.00618698 0.0 
0.661344 0.279575 0.0 
0.924996 -0.302339 0.0 
2.30348e-71 6.09458e-72 0.0 
4.37437e-52 6.32103e-53 0.0 
0.77254 -0.290415 0.0 
0.0793259 0.00167407 0.0 
0.968844 0.303371 0.0 
1.00781 -0.000191829 0.0 
1.00046 0.00525858 0.0 
0.172379 0.0126172 0.0 
0.225703 -0.0599639 0.0 
0.00540926 0.000204787 0.0 
1.0095 0.000670406 0.0 
1.01163 -0.00139409 0.0 
0.0164946 -0.00148667 0.0 
0.590604 0.0803071 0.0 
0.0430771 -0.0167209 0.0 
0.985238 -0.0292084 0.0 
0.0410361 -0.00803269 0.0 
1.00667 -0.000348678 0.0 
-6.38746e-12 -2.52451e-13 0.0 
0.926645 1.28419e-05 0.0 
0.0606752 -0.00744415 0.0 
1.00907 0.00105252 0.0 
0.00552648 0.000980282 0.0 
0.861946 0.258321 0.0 
8.83725e-159 2.73048e-160 0.0 
1.00896 -0.000120874 0.0 
0.296449 0.175394 0.0 
0.0031995 -0.000224974 0.0 
1e-307 1e-307 0.0 
0.000280599 1.43394e-05 0.0 
0.00800825 -0.000605899 0.0 
1.02593 -0.00127445 0.0 
0.86005 0.292256 0.0 
-3.33348e-11 -5.23126e-12 0.0 
0.983095 0.00111273 0.0 
0.402971 -0.0279195 0.0 
0 0 0.0 
1.72292e-242 3.84448e-243 0.0 
0.000297078 1.17739e-05 0.0 
0.00759658 0.000127499 0.0 
0.854133 -0.204066 0.0 
0.221596 0.0227469 0.0 
1.05979 -0.0529458 0.0 
0.0486882 -0.00340843 0.0 
0 0 0.0 
1.05091 0.0066272 0.0 
1.0123 -0.294025 0.0 
0.318191 0.108765 0.0 
0.323451 0.165421 0.0 
-2.60821e-207 1.87239e-208 0.0 
1.01171 -8.23857e-05 0.0 
0.000321081 -3.86656e-05 0.0 
0.00439178 -0.000449925 0.0 
1e-307 1e-307 0.0 
0.528685 -0.15313 0.0 
1.41277e-45 1.93245e-46 0.0 
1.00651 0.256716 0.0 
0.284948 0.0627833 0.0 
0.0106743 -0.00110971 0.0 
0.273555 0.0664803 0.0 
-1.62188e-179 -4.59499e-181 0.0 
0.982869 0.0806271 0.0 
0.25694 -0.00302368 0.0 
0.726929 0.190954 0.0 
1.00688 0 0.0 
0.67778 0.198902 0.0 
1.01685 0.0954469 0.0 
0.500494 0.151747 0.0 
1.00874 -0.00114923 0.0 
0.94475 -0.359742 0.0 
3.00427e-07 1.18762e-08 0.0 
0.237702 -0.0232439 0.0 
1.03625 -0.272802 0.0 
9.04063e-40 -2.61492e-40 0.0 
0.263842 -0.0188063 0.0 
1.00786 0.000166884 0.0 
0.593646 -0.0733379 0.0 
0.536701 -0.0628614 0.0 
0 0 0.0 
0.0262763 -0.00694263 0.0 
0.0161832 0.000276582 0.0 
0.161155 0.167838 0.0 
0 0 0.0 
0.11524 0.0141197 0.0 
1.09301 -0.0960111 0.0 
1.00801 -0.0445612 0.0 
0.861982 -0.0704426 0.0 
1.00773 0.000257706 0.0 
1.01206 0.000863601 0.0 
0.00656037 -0.000962412 0.0 
1.02129 -0.110002 0.0 
0 0 0.0 
0.984014 -0.0315027 0.0 
0.764032 -0.332243 0.0 
1.00293 -0.00159085 0.0 
0.692958 -0.288738 0.0 
0.00165833 -0.00023456 0.0 
1.00949 -0.00184166 0.0 
1.00922 -0.00149708 0.0 
1.60895e-05 -2.7177e-06 0.0 
1.0891 0.023412 0.0 
0.150494 0.00078232 0.0 
0.0124321 7.86112e-06 0.0 
0.0456445 -0.00820088 0.0 
0.0428447 -0.00450012 0.0 
0.37246 0.0656696 0.0 
0.00133708 -0.000283871 0.0 
1.00003 0.000513198 0.0 
0.745928 -0.428919 0.0 
9.64093e-14 1.24174e-14 0.0 
0.90508 0.331292 0.0 
1.02464 0.010284 0.0 
0.152893 0.0485464 0.0 
0.117902 -0.0214937 0.0 
0.81983 -0.245165 0.0 
0.350846 0.0508187 0.0 
0.998621 -0.00130304 0.0 
0.302152 -0.0278727 0.0 
3.59681e-08 4.15008e-09 0.0 
0.990739 -0.050289 0.0 
0.033211 -0.0150864 0.0 
9.38353e-209 -6.4991e-210 0.0 
0.844439 -0.00889362 0.0 
0.802629 -0.352344 0.0 
0.609362 -0.0164758 0.0 
0.696498 0.0437776 0.0 
0 0 0.0 
0.0714647 0.0535406 0.0 
-1.07439e-102 1.01473e-103 0.0 
1.00249 0.152691 0.0 
0.535118 0.0111046 0.0 
0.645145 -0.00951639 0.0 
1.02494 -0.228043 0.0 
1.00765 0.000117181 0.0 
-3.12361e-29 -3.51419e-29 0.0 
1e-307 0 0.0 
1.00935 0.00064307 0.0 
0.00479175 0.000295763 0.0 
0 0 0.0 
1.03559e-76 2.50827e-77 0.0 
1.00857 0.000187014 0.0 
1.00051 0.000591089 0.0 
0.00488476 0.000608908 0.0 
0.517136 -0.00544319 0.0 
1.01029 0.00138903 0.0 
0.00129244 -0.000357983 0.0 
0.561484 0.0427897 0.0 
0.640496 0.36035 0.0 
0 0 0.0 
1.00004 0.00161193 0.0 
0.407683 0.0201472 0.0 
0.00995883 -0.000191651 0.0 
0.969139 -0.341659 0.0 
0 0 0.0 
0.129564 0.00440728 0.0 
0.161188 0.0166331 0.0 
0.244865 0.0443816 0.0 
0.116172 0.0353598 0.0 
0.848854 0.331001 0.0 
1.01387 0.114513 0.0 
4.61552e-63 6.31334e-64 0.0 
1.00907 0.000554211 0.0 
0.718386 0.219678 0.0 
-5.34284e-22 6.63168e-23 0.0 
1.01014 0.270657 0.0 
0.561454 -0.208321 0.0 
1.00837 0.000192634 0.0 
0.805715 0.165204 0.0 
0.00339668 -0.000495247 0.0 
0.842731 0.345364 0.0 
1.00766 -0.00369965 0.0 
0.00364012 -0.000210686 0.0 
1.01103 -0.00134322 0.0 
0.243099 0.238064 0.0 
1.00001 -0.000536877 0.0 
0.961771 -0.0159396 0.0 
0.000242266 3.15015e-07 0.0 
0.19403 -0.00580166 0.0 
0.61627 -0.117068 0.0 
1.00556 0 0.0 
0.581391 -0.0881807 0.0 
0.563648 0.0548085 0.0 
3.03612e-06 -2.65475e-07 0.0 
0.015634 0.000767761 0.0 
0.158332 -0.252126 0.0 
0.0717679 -0.00820256 0.0 
0.0334254 0.000573791 0.0 
-2.37541e-36 4.48609e-37 0.0 
1.12766 0.0495923 0.0 
0.0542283 0.00533595 0.0 
0 0 0.0 
0.0231395 -0.000665568 0.0 
0.0348196 -0.000184245 0.0 
0 0 0.0 
1.09289 0.01215 0.0 
0.00199668 -0.000184176 0.0 
0.661758 0.00738442 0.0 
0.0956598 0.0190757 0.0 
0.841002 0.34117 0.0 
-9.63905e-27 1.06971e-27 0.0 
1.00755 8.87546e-05 0.0 
0.000141086 1.09402e-05 0.0 
0.353896 0.0906706 0.0 
0.741415 0.302989 0.0 
1.2979e-05 -1.61955e-06 0.0 
0.0231528 0.00117364 0.0 
0.00354485 0.000348733 0.0 
0.619479 0.0107521 0.0 
1.00054 0.00243648 0.0 
0.594844 -0.0267448 0.0 
1.01009 -0.00109645 0.0 
0.446056 -0.207744 0.0 
0.0135528 0.000594716 0.0 
0.051799 0.00531752 0.0 
0.0757232 0.0156581 0.0 
0.859743 -0.402657 0.0 
0.227017 0.0238798 0.0 
1.00788 0.000118559 0.0 
1.05575 -0.174993 0.0 
1.00859 0.000276207 0.0 
0.184278 0.0081117 0.0 
1.01209 -0.00197415 0.0 
0.0103526 -0.00644902 0.0 
0.67842 -0.367772 0.0 
1.00493 0.00113682 0.0 
0.959223 0.301776 0.0 
0.593776 -0.143218 0.0 
0.377754 -0.0249056 0.0 
2.55179e-57 2.27764e-58 0.0 
0.136458 -0.0198288 0.0 
0.84051 0.0241457 0.0 
1.0091 -0.00126856 0.0 
0.339424 -0.245021 0.0 
1.00053 0.00426538 0.0 
0.071204 0.00625675 0.0 
4.34306e-10 5.17723e-11 0.0 
0.99995 -0.000488699 0.0 
1.00727 -0.000542302 0.0 
0.00325561 6.26852e-05 0.0 
0.83757 0.0432167 0.0 
0.113025 0.00188385 0.0 
0.31173 -0.262701 0.0 
1.01704 -0.000770573 0.0 
1.01006 -0.00129328 0.0 
1.005 -0.00287299 0.0 
0.919753 0.0346133 0.0 
0.443632 -0.0927707 0.0 
0.470249 -0.0259386 0.0 
1.00838 -0.00135701 0.0 
1.00924 0.000220899 0.0 
0.0377588 -0.00862937 0.0 
0.506836 -0.00370339 0.0 
1.00711 -0.000527874 0.0 
0.00611964 0.000547091 0.0 
0.938539 -0.176212 0.0 
0.161624 0.00577014 0.0 
1.02779 -0.0383535 0.0 
1.00082 0.00298214 0.0 
0.00540114 0.000551739 0.0 
0.0604904 -0.00921505 0.0 
0.0151269 0.00125504 0.0 
0.334805 -0.349939 0.0 
0.496265 0.231063 0.0 
0.52682 0.096032 0.0 
1.00747 -0.000568259 0.0 
0.982211 0.175399 0.0 
0.90896 0.0910979 0.0 
-1.54799e-12 -1.10886e-13 0.0 
0.0649568 0.0144581 0.0 
0.0392812 0.00651682 0.0 
1.00739 -0.000263141 0.0 
1.00504 -0.0980101 0.0 
0.998849 -0.000145129 0.0 
0.00595872 7.98312e-05 0.0 
0.0020187 -0.000161281 0.0 
0 0 0.0 
1.04013 -0.200981 0.0 
0.325473 0.110177 0.0 
0.750303 0.24772 0.0 
0.902587 0.280374 0.0 
0.0256143 -0.000536544 0.0 
1.00793 0.000649024 0.0 
3.82292e-271 1.56922e-273 0.0 
0.991727 -0.0214577 0.0 
0.124872 0.00535348 0.0 
1.06998 -0.0287491 0.0 
0 0 0.0 
0.154719 0.00797322 0.0 
0.0113686 -0.00418626 0.0 
0.540719 0.299998 0.0 
0.0231739 -0.00466963 0.0 
0.792969 0.00753293 0.0 
0.337909 0.0651489 0.0 
1.00388 0.00268891 0.0 
0.0407717 -0.000184706 0.0 
0.287683 -0.0317403 0.0 
0.897674 -0.217572 0.0 
0.906956 -0.391498 0.0 
0.930433 -0.233129 0.0 
0.839027 -0.332069 0.0 
1.00861 0.0005673 0.0 
0.12014 0.0111405 0.0 
0.00333961 -0.000480355 0.0 
1.00675 -0.000283727 0.0 
1.01512 0.00250162 0.0 
0.727544 0.0571231 0.0 
0.784802 -0.277491 0.0 
0.311746 0.0130209 0.0 
3.11073e-05 3.66734e-06 0.0 
0.613 0.0169265 0.0 
6.33443e-287 -5.47769e-288 0.0 
0.665443 -0.216195 0.0 
0.00513754 3.12546e-05 0.0 
0.0287132 0.00930211 0.0 
-1.85108e-23 -2.10331e-24 0.0 
3.25197e-207 -2.25233e-208 0.0 
1.08527 -0.181852 0.0 
1.04905 -0.148557 0.0 
0.00948274 0.00416112 0.0 
0.0104657 0.000617451 0.0 
1.64849e-237 3.92089e-240 0.0 
1.04337 -0.0944816 0.0 
0.0666618 0.00515189 0.0 
1.08778 0.109899 0.0 
0.837576 -0.419793 0.0 
0.881198 -0.0136847 0.0 
0.17127 0.00592455 0.0 
0.836743 -0.418691 0.0 
0.99999 0.000657086 0.0 
0.0483029 -0.0167342 0.0 
0 0 0.0 
0.747522 -0.0180856 0.0 
1.26465e-152 3.78505e-153 0.0 
0.999955 0.00142487 0.0 
0.999618 -0.000487964 0.0 
0.0051226 -0.000712079 0.0 
0.889185 0.00273907 0.0 
0.155298 0.0224301 0.0 
3.7354e-51 6.42254e-52 0.0 
0.998418 -0.00308144 0.0 
0.0607758 -0.00308995 0.0 
0.999986 -0.00059622 0.0 
1.00775 0.000155854 0.0 
0.571691 0.0108175 0.0 
0.653782 -0.353677 0.0 
0.449176 -0.0448662 0.0 
0.130409 -0.019898 0.0 
0.123397 0.0201638 0.0 
0 0 0.0 
0 0 0.0 
0.999908 -0.000717942 0.0 
0.238753 0.129366 0.0 
0.910456 -0.0271738 0.0 
0.0444078 -0.0134178 0.0 
0 0 0.0 
1.00081 -0.000962782 0.0 
0.516526 -0.0782291 0.0 
0.118679 0.0274114 0.0 
1.11925 0.139492 0.0 
1.00423 -0.0041144 0.0 
0.99996 0.000438369 0.0 
0.773701 0.0634394 0.0 