<VTKFile type="UnstructuredGrid" version="0.1" byte_order="LittleEndian">
  <UnstructuredGrid>
    <Piece NumberOfPoints="13181" NumberOfCells="26201">
      <Points>
        <DataArray type = "Float64" NumberOfComponents="3" format="ascii">
0 0 0.0 
14 0 0.0 
14 8 0.0 
0 8 0.0 
4.16782 4.09801 0.0 
4.09786 3.95891 0.0 
4.34499 4.08157 0.0 
4.9415 6.23198 0.0 
4.05348 4.07845 0.0 
4.09208 3.95602 0.0 
7.95658 4.99258 0.0 
4.33592 4.0755 0.0 
4.20715 3.97737 0.0 
4.56694 4.04774 0.0 
3.99883 4.00817 0.0 
4.04003 3.97377 0.0 
3.96554 4.00011 0.0 
4.2593 4.09637 0.0 
4.22098 4.06338 0.0 
4.68732 4.11516 0.0 
4.24845 4.07301 0.0 
4.89665 4.01762 0.0 
3.9464 4.01382 0.0 
4.01323 3.99894 0.0 
4.39858 4.09392 0.0 
4.25007 4.10489 0.0 
4.16638 3.96757 0.0 
4.19631 3.97433 0.0 
4.20488 4.08601 0.0 
5.05801 3.99985 0.0 
4.00962 4.08349 0.0 
4.42991 2.01386 0.0 
4.10445 4.07203 0.0 
4.38838 3.94964 0.0 
4.00955 3.98517 0.0 
4.0105 4.00222 0.0 
0.357238 7.56402 0.0 
4.63757 3.98241 0.0 
4.18964 3.9825 0.0 
4.33765 3.96 0.0 
4.17759 3.97818 0.0 
4.96071 4.02007 0.0 
4.09533 4.03459 0.0 
4.00922 3.99881 0.0 
4.36246 4.07506 0.0 
4.00418 3.99483 0.0 
4.65211 4.0607 0.0 
4.36731 4.05544 0.0 
5.05548 4.0911 0.0 
4.96396 4.01787 0.0 
5.16321 3.91641 0.0 
3.93682 3.99751 0.0 
4.11094 4.03801 0.0 
3.91307 3.93642 0.0 
4.03474 4.00368 0.0 
4.19353 4.07857 0.0 
4.71718 3.98526 0.0 
4.6031 3.97967 0.0 
4.07181 4.03635 0.0 
4.17387 3.99146 0.0 
4.21452 4.09342 0.0 
4.79461 4.03481 0.0 
4.03295 3.99414 0.0 
0.584774 1.3012 0.0 
0.581222 4.47887 0.0 
4.24553 4.07114 0.0 
4.18812 3.96385 0.0 
3.99342 4.00186 0.0 
4.84542 3.99172 0.0 
7.69985 0 0.0 
4.13388 3.95715 0.0 
4.4439 4.06666 0.0 
4.96507 4.02144 0.0 
4.02231 3.98111 0.0 
3.82319 4.11397 0.0 
4.32429 4.08681 0.0 
4.01647 3.99236 0.0 
4.15325 4.03969 0.0 
4.89651 3.99284 0.0 
4.25102 3.95497 0.0 
4.05765 3.97132 0.0 
4.66841 4.06217 0.0 
4.42721 3.96726 0.0 
0 6.15459 0.0 
4.0192 3.99331 0.0 
5.0876 4.02602 0.0 
4.7376 3.98703 0.0 
4.97524 4.02614 0.0 
4.17785 3.95317 0.0 
4.30246 4.06922 0.0 
5.00785 4.00312 0.0 
10.8833 7.73481 0.0 
4.01965 4.03223 0.0 
4.02894 4.02671 0.0 
14 6.11123 0.0 
4.05096 4.01373 0.0 
3.99379 4.00703 0.0 
3.96293 3.99513 0.0 
4.0152 4.00142 0.0 
4.88324 4.01938 0.0 
4.75673 3.9879 0.0 
4.57871 4.08068 0.0 
4.04815 4.03438 0.0 
3.88293 4.06948 0.0 
4.08008 3.9656 0.0 
4.36005 3.98324 0.0 
4.23788 4.086 0.0 
4.88598 4.00758 0.0 
4.20762 4.07017 0.0 
5.03684 4.01469 0.0 
4.12681 4.04136 0.0 
4.86176 4.03025 0.0 
4.27927 3.9678 0.0 
4.41691 4.06917 0.0 
4.03963 4.03305 0.0 
4.27964 3.95178 0.0 
4.82279 4.03038 0.0 
14 5.21618 0.0 
4.26548 4.05787 0.0 
4.02777 4.06274 0.0 
4.01757 4.01026 0.0 
3.99865 3.97733 0.0 
4.28749 4.07809 0.0 
3.94943 3.96456 0.0 
4.32616 4.09061 0.0 
4.3835 4.11301 0.0 
4.94742 3.99748 0.0 
3.97168 3.87852 0.0 
3.97727 3.94993 0.0 
4.06903 3.98443 0.0 
1.11625 6.94958 0.0 
12.0984 8 0.0 
4.36393 4.06885 0.0 
3.92866 4.03401 0.0 
5.50089 4.09069 0.0 
4.04836 4.00644 0.0 
3.94409 3.86408 0.0 
4.43989 3.92312 0.0 
3.97661 4.05846 0.0 
4.81084 4.0108 0.0 
4.00146 3.99243 0.0 
3.05817 4.59047 0.0 
4.36357 3.95646 0.0 
4.93479 3.99586 0.0 
4.34604 4.08406 0.0 
4.37798 8 0.0 
4.12623 4.0709 0.0 
4.08373 4.05666 0.0 
4.09568 4.05562 0.0 
4.06164 3.97511 0.0 
4.33046 3.95323 0.0 
4.27852 0 0.0 
5.04845 4.04311 0.0 
4.29262 4.07791 0.0 
4.80763 4.01474 0.0 
6.14814 4.02317 0.0 
4.61973 3.96427 0.0 
4.32978 3.96778 0.0 
3.92907 3.89531 0.0 
4.0672 3.97054 0.0 
4.59609 3.96558 0.0 
4.70266 8 0.0 
4.58196 4.03482 0.0 
4.33893 4.08187 0.0 
4.19767 3.93669 0.0 
4.6522 3.9824 0.0 
4.81094 4.05134 0.0 
4.13425 4.07811 0.0 
4.47182 4.06554 0.0 
4.97569 4.13903 0.0 
3.94576 4.12556 0.0 
5.11295 3.90338 0.0 
4.1741 4.07586 0.0 
4.74466 3.9847 0.0 
4.96793 4.01911 0.0 
4.89032 4.03847 0.0 
3.81828 3.31549 0.0 
4.34962 4.06943 0.0 
4.16731 4.07557 0.0 
4.42898 4.06798 0.0 
4.55668 4.05035 0.0 
3.91267 2.38613 0.0 
4.02873 4.0411 0.0 
4.21025 3.93615 0.0 
4.29787 4.08601 0.0 
4.08859 4.05676 0.0 
4.29519 3.94158 0.0 
4.81937 3.98957 0.0 
4.30615 3.96016 0.0 
4.82165 4.0142 0.0 
4.12124 3.98374 0.0 
4.21971 3.98354 0.0 
4.52702 3.97599 0.0 
4.08226 3.93581 0.0 
4.17912 4.05461 0.0 
4.82547 4.05186 0.0 
4.01744 4.0121 0.0 
4.23759 4.08946 0.0 
4.99458 4.03862 0.0 
4.38919 4.13624 0.0 
4.05286 3.93495 0.0 
10.8355 3.51217 0.0 
4.1829 4.06659 0.0 
4.12635 4.07409 0.0 
0 1.4212 0.0 
4.73527 4.04359 0.0 
4.8762 4.04179 0.0 
4.18679 4.08465 0.0 
4.38559 4.08377 0.0 
4.91951 4.01668 0.0 
4.07206 3.95115 0.0 
4.1526 3.96704 0.0 
4.33779 3.9685 0.0 
4.25777 4.07923 0.0 
4.70545 3.82395 0.0 
4.16303 4.06419 0.0 
4.44393 4.06867 0.0 
4.0644 3.93891 0.0 
4.33589 3.95158 0.0 
4.16503 4.11076 0.0 
4.5597 4.05269 0.0 
2.53507 4.64206 0.0 
4.31496 3.94521 0.0 
4.19206 3.91938 0.0 
4.25641 4.04704 0.0 
3.96023 4.01528 0.0 
4.09641 3.95124 0.0 
4.12454 3.92729 0.0 
4.19315 3.95086 0.0 
4.08491 4.0641 0.0 
3.96293 4.03138 0.0 
4.31481 3.93765 0.0 
4.06298 3.99231 0.0 
4.29226 4.09769 0.0 
4.00418 4.00381 0.0 
4.00327 3.99438 0.0 
4.21125 3.95113 0.0 
3.99252 4.00665 0.0 
4.88095 4.00731 0.0 
4.17636 4.06982 0.0 
4.01378 4.004 0.0 
4.56611 3.97772 0.0 
3.94066 3.96869 0.0 
4.46647 4.06706 0.0 
3.95819 3.97698 0.0 
4.23989 3.99243 0.0 
4.80049 3.97515 0.0 
4.34412 4.06902 0.0 
4.33217 3.9691 0.0 
4.54783 4.09596 0.0 
4.15636 4.04974 0.0 
3.95778 3.98461 0.0 
3.8769 4.36415 0.0 
3.9419 3.97853 0.0 
4.84871 4.03782 0.0 
4.19018 4.05306 0.0 
4.61758 3.95715 0.0 
4.10081 3.94382 0.0 
4.25891 4.07338 0.0 
4.69463 4.07217 0.0 
4.27301 4.09229 0.0 
4.03059 3.99519 0.0 
4.52335 3.97562 0.0 
4.29179 4.03827 0.0 
5.07067 3.97635 0.0 
5.00368 4.02219 0.0 
4.23154 4.07931 0.0 
3.9771 4.03148 0.0 
5.36318 3.90016 0.0 
4.06519 4.02486 0.0 
4.18715 4.07563 0.0 
4.15561 4.10177 0.0 
4.18309 4.12442 0.0 
3.96476 4.03852 0.0 
4.41439 3.94093 0.0 
5.05313 3.95735 0.0 
4.30242 3.94915 0.0 
4.0339 4.05256 0.0 
3.96822 4.02719 0.0 
3.97233 4.04194 0.0 
3.98573 3.91699 0.0 
5.01049 4.01163 0.0 
6.81022 4.46968 0.0 
4.39564 4.08373 0.0 
4.58971 3.97896 0.0 
4.20876 3.92492 0.0 
3.92251 4.00785 0.0 
4.26235 3.99236 0.0 
4.22899 4.0812 0.0 
4.70071 3.97762 0.0 
6.35397 2.45877 0.0 
4.30498 3.95249 0.0 
4.70319 4.04549 0.0 
4.56338 3.9776 0.0 
4.2889 4.06302 0.0 
4.3527 4.06185 0.0 
4.30838 4.04221 0.0 
3.94564 3.99975 0.0 
4.82009 4.03077 0.0 
4.97975 4.00671 0.0 
4.9349 4.01269 0.0 
4.24134 3.96722 0.0 
5.0401 4.02083 0.0 
4.98371 4.01321 0.0 
4.53214 3.93524 0.0 
4.17009 4.05996 0.0 
4.52064 4.08001 0.0 
5.08108 3.96466 0.0 
4.15458 4.07956 0.0 
4.63793 4.05336 0.0 
13.3549 8 0.0 
11.7013 4.10211 0.0 
4.00532 3.9882 0.0 
4.07858 3.96721 0.0 
4.11379 4.05139 0.0 
4.1384 3.95607 0.0 
3.68341 1.80592 0.0 
3.99922 3.99464 0.0 
4.5533 4.04791 0.0 
4.13146 3.96759 0.0 
4.36894 4.08372 0.0 
4.19904 3.96469 0.0 
4.51754 3.97574 0.0 
4.05408 3.9411 0.0 
4.99085 4.01035 0.0 
4.02341 4.03456 0.0 
5.00323 4.00395 0.0 
4.52724 7.41561 0.0 
5.05919 4.01855 0.0 
4.02651 3.98657 0.0 
4.55513 4.04031 0.0 
4.79762 4.0347 0.0 
4.83717 4.04519 0.0 
4.48063 4.05295 0.0 
4.14581 4.04395 0.0 
4.87065 3.99094 0.0 
4.04195 3.99898 0.0 
4.32335 2.9985 0.0 
3.99013 3.94414 0.0 
4.06234 3.9498 0.0 
4.88044 0 0.0 
4.2137 3.98024 0.0 
4.07401 3.9833 0.0 
1.24078 0.550265 0.0 
5.15301 3.98184 0.0 
5.19518 4.14385 0.0 
4.98896 4.00281 0.0 
2.38032 0.204862 0.0 
4.72887 4.06865 0.0 
9.1005 7.43296 0.0 
4.29265 4.0727 0.0 
4.51519 4.0859 0.0 
8.18508 0.217596 0.0 
4.09033 4.05486 0.0 
4.22398 4.06438 0.0 
9.45156 3.04016 0.0 
4.01517 4.03055 0.0 
4.26022 3.94165 0.0 
4.04734 4.04874 0.0 
4.0111 3.92417 0.0 
3.48922 4.85133 0.0 
4.02246 4.02836 0.0 
4.59873 3.971 0.0 
3.99908 3.98836 0.0 
4.47347 4.1141 0.0 
4.12151 3.94609 0.0 
5.14043 4.17282 0.0 
4.07499 3.95628 0.0 
4.28453 3.96686 0.0 
4.51644 3.95325 0.0 
4.63901 3.98116 0.0 
4.31051 4.0737 0.0 
5.00671 4.01055 0.0 
4.97222 4.02124 0.0 
4.39982 3.97124 0.0 
4.28344 3.94026 0.0 
4.12673 3.95742 0.0 
3.91833 4.06784 0.0 
4.35005 4.09252 0.0 
4.2163 3.94824 0.0 
4.34293 3.96847 0.0 
4.22957 3.95099 0.0 
4.97982 4.00088 0.0 
4.29213 4.06742 0.0 
4.02669 4.10937 0.0 
5.13054 4.0462 0.0 
4.8792 4.02192 0.0 
5.01968 4.10857 0.0 
4.35477 3.97061 0.0 
4.33125 3.93654 0.0 
4.77727 3.98835 0.0 
4.93231 3.96055 0.0 
4.28959 4.04279 0.0 
4.91902 3.92608 0.0 
4.12408 3.94161 0.0 
4.2094 4.06403 0.0 
4.77592 4.02735 0.0 
4.26004 3.94534 0.0 
4.33335 4.19669 0.0 
5.04726 4.00417 0.0 
4.54097 3.97549 0.0 
4.03475 4.04591 0.0 
4.35958 3.9411 0.0 
4.86226 4.02623 0.0 
4.0062 4.04545 0.0 
4.22275 3.94604 0.0 
4.66775 4.07119 0.0 
4.27545 4.05009 0.0 
3.86336 4.01206 0.0 
4.21674 3.95593 0.0 
4.15128 3.96503 0.0 
4.13935 4.05909 0.0 
4.20758 4.05475 0.0 
4.27039 4.07656 0.0 
4.02815 4.04832 0.0 
4.62939 4.03867 0.0 
3.99053 4.00403 0.0 
4.3703 4.07036 0.0 
4.27103 3.93948 0.0 
4.51983 4.11882 0.0 
4.255 4.06007 0.0 
4.26299 4.06485 0.0 
4.21285 3.96678 0.0 
4.30661 4.08755 0.0 
4.30211 3.98484 0.0 
4.00163 3.99083 0.0 
5.04115 5.38039 0.0 
4.17983 4.0788 0.0 
4.05328 3.97462 0.0 
4.78187 3.90352 0.0 
5.34463 3.7828 0.0 
4.2489 4.09629 0.0 
5.06347 3.99507 0.0 
4.30181 4.08029 0.0 
4.089 3.96007 0.0 
4.32398 4.05563 0.0 
5.08198 4.04957 0.0 
4.15489 4.05903 0.0 
5.02947 4.00625 0.0 
6.02651 0 0.0 
4.71667 3.97864 0.0 
4.71694 4.01271 0.0 
5.35127 3.82216 0.0 
4.89885 3.99325 0.0 
6.91256 3.08935 0.0 
4.35458 3.94583 0.0 
4.84362 3.99017 0.0 
5.0538 3.98323 0.0 
4.01706 3.99618 0.0 
4.0988 3.89337 0.0 
3.99883 4.01382 0.0 
4.43449 3.99403 0.0 
4.00628 3.9886 0.0 
4.08942 3.95104 0.0 
4.22944 4.07705 0.0 
4.30444 4.0715 0.0 
3.64828 2.32049 0.0 
4.01165 4.04753 0.0 
4.50335 3.97408 0.0 
4.58028 3.99402 0.0 
4.20227 4.08039 0.0 
4.23985 4.08128 0.0 
4.62882 4.05387 0.0 
4.25808 4.05753 0.0 
4.59186 4.0578 0.0 
4.10203 3.95404 0.0 
4.99023 4.00281 0.0 
3.99752 4.02893 0.0 
4.06101 3.99413 0.0 
4.26259 4.0847 0.0 
4.15582 4.07076 0.0 
4.17168 4.03852 0.0 
5.41307 4.06106 0.0 
4.91967 3.99273 0.0 
[...]
<PointData>
  <DataArray type = "Float64" Name="Vitesse" NumberOfComponents="3" format="ascii">
1 0 0.0 
1.00018 0 0.0 
0.999881 0 0.0 
1 0 0.0 
1.03245 0.172119 0.0 
0.476521 -0.0525088 0.0 
0.295789 0.00468887 0.0 
1.01151 -9.83588e-05 0.0 
0.972446 0.29592 0.0 
0.622135 -0.0816678 0.0 
0.997829 -0.00131827 0.0 
0.158324 0.00302618 0.0 
1.56816e-277 8.1853e-280 0.0 
-5.1964e-252 3.1353e-253 0.0 
0.135573 0.142514 0.0 
0.300573 -0.0730037 0.0 
0.646841 -0.0601249 0.0 
0.791633 0.0710775 0.0 
0.00106998 5.48122e-05 0.0 
0.786811 -0.0359314 0.0 
0.215639 0.0177003 0.0 
2.66766e-16 -2.58875e-17 0.0 
0.73271 0.00710851 0.0 
0 0 0.0 
0.52294 0.00459649 0.0 
0.952656 0.0979525 0.0 
0.00315608 -0.000135699 0.0 
6.05476e-52 7.6122e-54 0.0 
0.727836 0.0901398 0.0 
0.101181 0.00734113 0.0 
0.881255 0.243106 0.0 
1.01014 -0.00456335 0.0 
0.883113 0.211905 0.0 
0.343515 0.0053148 0.0 
0.330994 -0.205622 0.0 
0 0 0.0 
1.00006 0.000126784 0.0 
4.00067e-05 3.0974e-06 0.0 
0 0 0.0 
0.1644 0.00254509 0.0 
0 0 0.0 
0.0393222 -0.00579661 0.0 
0 0 0.0 
0 0 0.0 
0.138997 -0.00067083 0.0 
-2.96268e-107 1.41401e-107 0.0 
0.0977325 -0.00862057 0.0 
0 0 0.0 
0.651573 -0.0532769 0.0 
0.0322818 -0.00492533 0.0 
0.772862 0.0421285 0.0 
0.764226 -0.040042 0.0 
0 0 0.0 
0.869179 -0.0920664 0.0 
0 0 0.0 
0.574887 0.0721951 0.0 
0.00479552 0.000300929 0.0 
0.00594048 0.00037977 0.0 
7.19929e-68 -7.61975e-70 0.0 
0 0 0.0 
0.855018 0.104018 0.0 
0.00659063 -0.000769612 0.0 
0 0 0.0 
1.00007 -0.000405658 0.0 
0.999833 0.000522164 0.0 
0.166065 0.01415 0.0 
0.095943 -0.00238945 0.0 
0.232541 -0.101414 0.0 
9.18055e-07 1.11319e-07 0.0 
1.00384 0 0.0 
0.383803 -0.0273601 0.0 
0.000903424 -4.77136e-06 0.0 
0.0476592 -0.00697542 0.0 
0.161195 -0.0525066 0.0 
0.916685 0.0437944 0.0 
0.443683 0.016966 0.0 
0 0 0.0 
1e-307 1e-307 0.0 
0.012162 0.000792388 0.0 
0.272782 -0.00224918 0.0 
0.21384 -0.0297787 0.0 
0.126546 -0.0109376 0.0 
0.0775065 0.00216791 0.0 
1 0 0.0 
0 0 0.0 
0.146191 -0.0146453 0.0 
1.08104e-13 1.15204e-14 0.0 
0.0761714 -0.0111914 0.0 
0.395409 -0.0160767 0.0 
0.0246055 0.00147668 0.0 
0.0259141 -0.00487084 0.0 
1.00002 -4.73298e-05 0.0 
0.59478 0.309678 0.0 
3.75755e-08 1.72301e-08 0.0 
0.999892 3.59284e-06 0.0 
0 0 0.0 
0.253142 0.0684327 0.0 
0.671918 -0.0837266 0.0 
0 0 0.0 
2.01669e-05 -1.61764e-06 0.0 
1.96758e-05 2.24123e-06 0.0 
0.301435 -0.0166119 0.0 
0.0721869 0.0272966 0.0 
0.870609 0.0491766 0.0 
0.310718 -0.0418984 0.0 
2.48266e-72 9.2968e-74 0.0 
0.613318 0.0590365 0.0 
-4.35515e-110 4.75365e-111 0.0 
0.248341 0.0236063 0.0 
0.0678499 -0.0098645 0.0 
0 0 0.0 
0.0285033 -0.00379875 0.0 
0.0151414 0.0001701 0.0 
0.0296542 -0.000273798 0.0 
0.17465 0.0528318 0.0 
0.325891 5.18443e-05 0.0 
0.0031961 -0.000320652 0.0 
0.999914 2.41673e-05 0.0 
-8.88476e-53 -4.1931e-54 0.0 
0.890039 0.323141 0.0 
0 0 0.0 
0.728217 -0.432774 0.0 
0.278452 0.0113811 0.0 
0.795316 -0.132272 0.0 
0.529671 0.0216484 0.0 
0.869538 0.0277398 0.0 
1.51863e-05 1.42349e-06 0.0 
0.945618 -0.144412 0.0 
0.835687 -0.223485 0.0 
0 0 0.0 
1.00047 0.000978198 0.0 
0.999915 0 0.0 
0.00283254 -3.14912e-06 0.0 
0.79438 0.0429536 0.0 
0.764469 -0.0388781 0.0 
0 0 0.0 
0.94111 -0.11694 0.0 
0.737566 0.0025024 0.0 
0.780963 0.183535 0.0 
0 0 0.0 
0.213659 -0.27267 0.0 
0.99117 0.0108041 0.0 
0.227409 0.00412473 0.0 
0.00293105 0.000270049 0.0 
0.353011 0.00685119 0.0 
1.00724 0 0.0 
0.721987 0.145114 0.0 
0.615441 0.165107 0.0 
0.441077 0.108186 0.0 
3.41345e-07 -1.94054e-08 0.0 
0.284246 0.00310523 0.0 
1.00612 0 0.0 
0.222916 -0.0289313 0.0 
0.263838 0.011335 0.0 
-1.75804e-111 1.9189e-112 0.0 
0.654162 -0.0223014 0.0 
0.19073 0.00769052 0.0 
0.0330679 0.000776422 0.0 
0.911978 -0.114347 0.0 
0.169901 -0.0301637 0.0 
0.165691 0.006638 0.0 
1.00749 0 0.0 
-2.41911e-254 1.27246e-255 0.0 
0.308558 0.00678114 0.0 
0.757329 -0.04153 0.0 
0.000193495 9.61167e-06 0.0 
0.134014 -0.0144151 0.0 
0.855689 0.1689 0.0 
0.0107301 0.00011067 0.0 
0.956844 -0.0576533 0.0 
0.899485 0.123752 0.0 
0.853166 0.0414089 0.0 
0.586227 0.0828806 0.0 
0.0218766 0.00147658 0.0 
0.0393419 -0.00597643 0.0 
0.0948764 -0.011512 0.0 
1.00218 -0.0287551 0.0 
0.0186388 0.000291533 0.0 
0.613138 0.0912111 0.0 
0.0168639 -0.000181896 0.0 
-3.70419e-253 5.45288e-255 0.0 
1.00796 -0.00935912 0.0 
0.735579 0.330694 0.0 
0.743033 -0.0363106 0.0 
0.466077 0.0247996 0.0 
0.564638 0.146447 0.0 
0.52168 -0.00517624 0.0 
0.00801641 0.000465743 0.0 
0.158531 0.00133483 0.0 
1.47572e-58 -8.92424e-60 0.0 
0 0 0.0 
-2.10294e-262 -2.53469e-263 0.0 
0.00862783 0.000379012 0.0 
1.06333 -0.193104 0.0 
0 0 0.0 
0.149057 -0.0159398 0.0 
0 0 0.0 
0.699307 0.0698265 0.0 
0.163188 -0.0226928 0.0 
1.07735 0.0435624 0.0 
1.05635 -0.246088 0.0 
0.999718 0.000528518 0.0 
0.225849 0.0264347 0.0 
0.806081 0.165244 0.0 
1 0 0.0 
0.0159628 -0.00171467 0.0 
0.107757 -0.0127799 0.0 
0.766044 0.106293 0.0 
0.321025 0.00128809 0.0 
0.00612381 -0.000926123 0.0 
0.902937 -0.172628 0.0 
0.0313348 -0.00162918 0.0 
0.0228789 0.000301336 0.0 
0.374389 0.0284232 0.0 
1.06293 0.00553084 0.0 
0.240225 0.0305296 0.0 
0.0385449 -0.000505744 0.0 
1.06185 -0.22834 0.0 
0.313705 0.00301581 0.0 
1.09313 0.18443 0.0 
-2.62399e-94 1.55327e-95 0.0 
0.995881 0.00593537 0.0 
0.439496 -0.000639874 0.0 
1.01916 -0.0780449 0.0 
0 0 0.0 
0.678894 0.0238136 0.0 
0.753586 -0.101917 0.0 
1.05519 -0.134641 0.0 
0.429914 -0.015384 0.0 
0.828579 0.227064 0.0 
0.707347 0.0950361 0.0 
0.58131 -0.00544 0.0 
0 0 0.0 
0.744534 0.0508529 0.0 
-1.32654e-227 -1.54977e-227 0.0 
-5.15273e-114 2.53899e-114 0.0 
0.395943 -0.0102562 0.0 
0.283418 0.0444799 0.0 
-2.49613e-110 2.72453e-111 0.0 
0.375331 0.0480908 0.0 
0 0 0.0 
0.00875048 0.000906409 0.0 
0.798426 -0.107197 0.0 
0.0287127 -0.00227816 0.0 
0.743752 -0.136345 0.0 
-3.19304e-255 -2.79052e-256 0.0 
0.142583 0.00656462 0.0 
2.65654e-06 -8.44945e-08 0.0 
0.0131747 -0.000159273 0.0 
0.524713 -0.0187981 0.0 
1.65596e-274 1.46047e-275 0.0 
0.720994 -0.113769 0.0 
0.983904 0.0625157 0.0 
0.776215 -0.0921099 0.0 
0.0622748 -0.00773586 0.0 
0 0 0.0 
0.277355 0.0101699 0.0 
0.915755 -0.131441 0.0 
0.20165 0.0134349 0.0 
0.259515 -0.0205204 0.0 
0.67151 0.0516411 0.0 
0 0 0.0 
0.0117732 0.000579575 0.0 
-4.36482e-286 -3.85846e-287 0.0 
0.253802 0.0254809 0.0 
0.0714295 -0.0184103 0.0 
0.44966 0.0420801 0.0 
0.66218 0.154171 0.0 
0.850419 0.029688 0.0 
0 0 0.0 
0.514606 0.0661597 0.0 
1.06957 0.191234 0.0 
1.10774 0.167372 0.0 
0.724635 0.120411 0.0 
0.483462 0.00558964 0.0 
0.417827 0.0341188 0.0 
0.368676 -0.00018961 0.0 
0.868413 0.34588 0.0 
0.674138 0.0984304 0.0 
0.72213 0.155063 0.0 
0.920326 -0.195964 0.0 
0.0374506 -0.0144269 0.0 
1.02443 -0.0418978 0.0 
0.316024 -0.000492539 0.0 
0.00745884 0.000548039 0.0 
0.934196 -0.0574678 0.0 
0.793726 -0.0114202 0.0 
-1.45362e-251 -1.27037e-252 0.0 
0.51194 0.0498598 0.0 
0.0744778 0.0036303 0.0 
1.01064 0.0079293 0.0 
0.303182 0.000887869 0.0 
0.00507942 -0.000280867 0.0 
0.00838704 0.000478797 0.0 
-1.57792e-116 -1.10396e-117 0.0 
4.17161e-36 5.87488e-38 0.0 
0 0 0.0 
0.737203 -0.0404341 0.0 
0.00349203 -0.000315467 0.0 
0.00515005 -0.000940883 0.0 
0.00181192 -0.000150973 0.0 
0.0178083 -0.000453332 0.0 
0.0869995 -0.0149134 0.0 
0.026386 -0.00516796 0.0 
0.55385 0.010197 0.0 
0.0399873 0.0073139 0.0 
0.263445 -0.0118834 0.0 
0.3605 0.0312721 0.0 
0.78957 0.135155 0.0 
0.0120855 -0.00117679 0.0 
0.999886 0 0.0 
0.999787 0.000236536 0.0 
0.309619 -0.247563 0.0 
0.245979 -0.0334777 0.0 
0.042308 0.00916178 0.0 
0.405064 -0.0274532 0.0 
1.00576 -0.005452 0.0 
0.198823 -0.295621 0.0 
1.79804e-269 2.1648e-271 0.0 
0.0414126 -0.00532129 0.0 
0.327398 0.00322086 0.0 
0.0695725 0.00147395 0.0 
0.00629397 0.000385513 0.0 
1.05529 -0.25083 0.0 
0.0221785 -0.0056929 0.0 
0.613416 0.304659 0.0 
0.0175432 -0.00958776 0.0 
1.00775 0.000494926 0.0 
0.0964659 -0.0101866 0.0 
2.31801e-40 -9.1303e-41 0.0 
2.4436e-269 -1.34298e-270 0.0 
0.00824076 -0.00104584 0.0 
0.104451 -0.0120204 0.0 
-2.57844e-149 -7.19575e-151 0.0 
1e-307 1e-307 0.0 
0.0185934 0.000472847 0.0 
0 0 0.0 
1.01855 -0.0151582 0.0 
0.876606 -0.253258 0.0 
0.978365 -0.2134 0.0 
1.00687 0 0.0 
1.10872e-241 5.85208e-243 0.0 
0 0 0.0 
1.00045 -0.00041814 0.0 
0.264946 0.0226062 0.0 
0.963635 -0.056722 0.0 
5.2034e-05 -6.00267e-06 0.0 
1.00195 -0.000411896 0.0 
0.242923 -0.0208287 0.0 
1.00072 -0.000479357 0.0 
0.12451 0.00437891 0.0 
0.357412 -0.0133686 0.0 
1.00304 0.000330211 0.0 
0.465739 0.118777 0.0 
0.00131917 8.63249e-05 0.0 
0.999656 0.00153919 0.0 
0.605611 0.336922 0.0 
0.552715 -0.0109878 0.0 
0.748859 0.276401 0.0 
0.958766 -0.237486 0.0 
0.998047 0.0202014 0.0 
0.359933 0.184354 0.0 
0.102114 0.00427392 0.0 
0.480614 -0.447887 0.0 
0.814506 -0.00126911 0.0 
0.771545 -0.0833912 0.0 
1.0195 -0.0559601 0.0 
0.734325 -0.12774 0.0 
0.0339953 0.000279803 0.0 
0.302713 0.00840446 0.0 
0.00727757 0.000239076 0.0 
0.13293 0.00325992 0.0 
0.0324514 -0.0145594 0.0 
0.0508081 -0.00770334 0.0 
0.00817804 0.000633864 0.0 
0.557623 -0.00787657 0.0 
0.398203 -0.0308353 0.0 
0.842442 0.075174 0.0 
0.539375 0.0150012 0.0 
0.459586 -0.0127969 0.0 
0.0253237 0.00110659 0.0 
0.378086 -0.00604905 0.0 
2.81736e-37 -2.96897e-38 0.0 
-5.11588e-44 -3.24942e-45 0.0 
0.940705 0.22311 0.0 
0.302653 -0.028057 0.0 
0.00312003 -0.000455855 0.0 
0.783136 -0.0576646 0.0 
0.00129066 7.56474e-05 0.0 
0.590015 -0.00325671 0.0 
5.90727e-05 5.62677e-06 0.0 
0.345354 0.0159674 0.0 
1e-307 1e-307 0.0 
0.678608 0.0251143 0.0 
0.868721 -0.0976758 0.0 
0.0399874 0.00371304 0.0 
5.04655e-51 -3.05183e-52 0.0 
0.475336 -0.00736269 0.0 
1.12008 0.0726983 0.0 
0.0791356 0.00244583 0.0 
0.0217441 0.000809158 0.0 
0.789512 0.326205 0.0 
0.494979 0.00207807 0.0 
0.00998468 -0.00148604 0.0 
0.762656 0.326751 0.0 
0.502826 -0.0139956 0.0 
0.2292 -0.017675 0.0 
0 0 0.0 
0.869347 -0.00259015 0.0 
0.272963 -0.00433138 0.0 
0.0937602 -0.00394846 0.0 
0.187527 0.0300199 0.0 
0 0 0.0 
0.268989 0.0160806 0.0 
0.836988 0.356272 0.0 
-1.88947e-234 2.86668e-235 0.0 
0.320405 -0.0390344 0.0 
0.0394826 0.00106526 0.0 
0.585377 -0.0107319 0.0 
0.852946 -0.0100866 0.0 
2.61598e-259 1.75799e-260 0.0 
1.63457e-13 1.18888e-14 0.0 
0.0181976 -7.03909e-05 0.0 
0.488874 0.0245095 0.0 
-1.71989e-258 -2.07262e-259 0.0 
0.309663 -0.329922 0.0 
1.02111 -0.00205744 0.0 
0.644215 0.0900119 0.0 
0.0590341 -0.0202492 0.0 
0.858632 0.0193033 0.0 
1.02031 0.0199559 0.0 
0.816057 0.0795268 0.0 
0.124494 0.0118332 0.0 
0.314396 0.0152263 0.0 
0.487681 -0.0607446 0.0 
0 0 0.0 
0.294515 -0.0326476 0.0 
0.0757112 0.0147847 0.0 
0.0559706 -0.00215599 0.0 
1.00652 0 0.0 
0.0704583 0.00303321 0.0 
-4.37578e-261 2.30168e-262 0.0 
1.00776 0.0213018 0.0 
0.00980188 0.000636707 0.0 
0.990646 0.0122833 0.0 
0.413405 0.00314615 0.0 
0.0137947 0.00111176 0.0 
0.18875 0.022098 0.0 
0 0 0.0 
1.07564 -0.155765 0.0 
0.311249 0.265036 0.0 
-1.27529e-238 -1.11452e-239 0.0 
0.220555 -0.17049 0.0 
0.80161 -0.120487 0.0 
0.39002 0.0358303 0.0 
0.0809048 0.00430123 0.0 
1.00558 -0.00871873 0.0 
0.791835 0.340832 0.0 
0.0215038 0.00105942 0.0 
-1.61781e-112 -1.03333e-113 0.0 
0.589455 0.0704711 0.0 
0.480015 0.0436573 0.0 
0.00941762 -0.000877546 0.0 
1.73862e-185 1.22154e-186 0.0 
0.0152351 -0.00090847 0.0 
0.630326 -0.0745092 0.0 
4.35681e-05 -1.18108e-05 0.0 
0.608259 0.314808 0.0 
0 0 0.0 
0.511442 0.0393401 0.0 
0.525542 0.0838113 0.0 
0 0 0.0 
0.58429 -0.0350982 0.0 
0.0247385 0.000862317 0.0 
0.805449 0.248884 0.0 
9.82864e-62 -1.32893e-62 0.0 
1.0002 0.00574871 0.0 
0.769052 0.0363602 0.0 
0 0 0.0 
0.777726 0.261639 0.0 
0.712155 -0.00615746 0.0 
0.66144 0.0617123 0.0 
0 0 0.0 
0.00782466 -0.00130081 0.0 
0 0 0.0 
1.00172 -0.00121875 0.0 
0.997736 0.052438 0.0 
0 0 0.0 
0.731067 0.346547 0.0 
0.000174004 -1.03705e-05 0.0 
0.878141 0.292283 0.0 
1.00001 -0.000197083 0.0 
0.595195 -0.348276 0.0 
0.201224 -0.0210932 0.0 
0.981696 -0.0565792 0.0 
0.483149 -0.0410379 0.0 
0.0897353 -0.00512883 0.0 
9.10424e-87 -7.46771e-89 0.0 
0 0 0.0 
-4.09885e-144 1.09434e-145 0.0 
-5.50432e-225 8.35108e-226 0.0 
1.00107 0 0.0 
6.39437e-297 -2.6146e-298 0.0 
-3.68168e-256 -3.21753e-257 0.0 
0.184148 0.0244481 0.0 
0.747273 0.02938 0.0 
0.0882105 0.00471143 0.0 
1.00307 -0.00233664 0.0 
0.801259 -0.140081 0.0 
0.258481 0.00131279 0.0 
0.178445 -0.0177667 0.0 
0.557002 0.0323483 0.0 
1.12263 0.115508 0.0 
0.856422 -0.305366 0.0 
0.999705 0.00111015 0.0 
0.354474 -0.033101 0.0 
0.097168 -0.00725672 0.0 
0.31744 0.00446404 0.0 
0.942941 0.171639 0.0 
0.983944 0.277574 0.0 
0.759963 0.196528 0.0 
0.00585402 -0.000283182 0.0 
1.00789 -0.000301384 0.0 
0.99987 -3.11322e-05 0.0 
0 0 0.0 
0.0885504 -0.0100543 0.0 
1.0045 0.00163522 0.0 
0.999689 -4.38991e-05 0.0 
0.303985 0.0863081 0.0 
0.594044 0.0599862 0.0 
0 0 0.0 
0.360032 0.00391823 0.0 
0.701759 0.176908 0.0 
0 0 0.0 
1.00002 0 0.0 
1.08716 -0.166907 0.0 
0.9059 0.066052 0.0 
0.0236003 -0.00111883 0.0 
0.844971 -0.0733308 0.0 
0.999883 -4.35846e-06 0.0 
0.298437 0.0390314 0.0 
0.170026 0.187939 0.0 
0.296762 -0.0277287 0.0 
0.998835 -0.000132515 0.0 
1.00012 0.000119469 0.0 
1.07085 0.118186 0.0 
0.0428421 0.0644717 0.0 
0.925274 -0.127072 0.0 
0.412935 0.0306334 0.0 
-1.50462e-55 -1.07034e-56 0.0 
0.0120115 -0.000221417 0.0 
0.923443 0.0163706 0.0 
0.733424 0.00301649 0.0 
0.741681 0.0412233 0.0 
0.0167709 0.00114421 0.0 
0.931716 0.104108 0.0 
-1.03753e-126 -9.32437e-128 0.0 
0.516721 -0.44614 0.0 
0.504761 0.00820955 0.0 
0.0926564 0.100965 0.0 
0 0 0.0 
0.0101743 -0.000877344 0.0 
0.709309 -0.379176 0.0 
0.40094 0.0353115 0.0 
1e-307 1e-307 0.0 
0.0108771 0.000618097 0.0 
0.316441 0.029926 0.0 
0.00435353 -0.000547983 0.0 
0.0700616 -0.00771124 0.0 
0.000892437 -0.000154503 0.0 
0.274817 0.0265964 0.0 
0.0121143 -0.00127121 0.0 
2.85934e-10 9.27755e-12 0.0 
1.07491 -0.0985534 0.0 
0.657638 -0.287225 0.0 
0 0 0.0 
1.05564 0.00398871 0.0 
1.06392 -0.104336 0.0 
0.0179684 0.000908 0.0 
0.472619 0.037505 0.0 
0.069577 0.00269342 0.0 
0.619609 -0.00393504 0.0 
0.999841 -6.31085e-07 0.0 
0.0195754 0.00141137 0.0 
4.64935e-07 -5.36293e-08 0.0 
0.716437 -0.268507 0.0 
1.00001 0.000167129 0.0 
0.019504 -0.00243822 0.0 
0.992215 0.256108 0.0 
1.29844e-38 -8.6465e-40 0.0 
0.0623316 0.048177 0.0 
0.389964 -0.0304494 0.0 
1.00407 0 0.0 
0.011142 0.000509733 0.0 
0.946354 -0.208695 0.0 
0.01489 0.000879749 0.0 
0 0 0.0 
0.271237 0.0110833 0.0 
0.717165 0.336108 0.0 
0.524774 -0.0571531 0.0 
0.948791 -0.0531805 0.0 
0.648368 0.25537 0.0 
0.712416 0.269869 0.0 
0.00556613 -0.035591 0.0 
1.00964 0.000492718 0.0 
0.999534 0.000200977 0.0 
0.998945 0.0016736 0.0 
1.27407e-14 -1.17405e-15 0.0 
0 0 0.0 
0.772779 0.121757 0.0 
0.495631 0.0945811 0.0 
0.794376 0.0107071 0.0 
0.983155 -0.0256205 0.0 
0.447295 0.00948102 0.0 
0.2193 0.0175606 0.0 
0.185928 -0.0189225 0.0 
0.245799 0.0105777 0.0 
-1.31383e-203 -1.33667e-204 0.0 
0.461579 0.0258009 0.0 
0.999995 -0.000248028 0.0 
0.677353 0.240506 0.0 
0.0047357 4.57892e-05 0.0 
0.0977862 0.0485685 0.0 
1.00104 0 0.0 
0.0446419 0.00184696 0.0 
1.1056 0.129853 0.0 
6.30301e-05 -8.70715e-06 0.0 
0.119932 0.0547516 0.0 
0.710462 0.374722 0.0 
7.56175e-06 4.31102e-07 0.0 
0.0015055 -0.000193238 0.0 
0.00429624 1.34633e-05 0.0 
0 0 0.0 
0.565864 -0.0952822 0.0 
1e-307 1e-307 0.0 
1.04673 0.25 0.0 
0.728798 0.307076 0.0 
1.00031 -0.000236588 0.0 
0.00214433 -0.000344184 0.0 
0.992111 -0.0547105 0.0 
0.00150231 7.79397e-05 0.0 
1.01454 -0.194867 0.0 
0.938764 0.0749122 0.0 
0.608911 -0.293302 0.0 
0.164148 -0.00122474 0.0 
0.924342 -0.267834 0.0 
1.02118 -0.252556 0.0 
0.000387465 -4.61236e-05 0.0 
0.873247 0.113795 0.0 
0 0 0.0 
1.0026 0.00475036 0.0 
0.430908 0.0119453 0.0 
1.00181 -0.00300996 0.0 
0.553665 -0.0634462 0.0 
0.539971 0.100086 0.0 
0.85764 0.151083 0.0 
0 0 0.0 
0.0681812 -0.0186529 0.0 
7.60838e-06 6.74729e-07 0.0 
1.00562 0 0.0 
-1.27707e-94 1.32287e-95 0.0 
1.81426e-05 -2.06384e-06 0.0 
0 0 0.0 
0.32164 -0.00556089 0.0 
0.582127 -0.430809 0.0 
1.00016 8.36431e-05 0.0 
1.00028 0 0.0 
0.0566557 -0.00174669 0.0 
0.449436 -0.10228 0.0 
0.541741 -0.0355175 0.0 
0.999859 -0.000957757 0.0 
0.74274 -0.0648923 0.0 
1 0 0.0 
0.226009 -0.0216735 0.0 
0.728963 0.0551371 0.0 
0.0973006 0.00623727 0.0 
0.182227 -0.00766357 0.0 
0.143848 0.168595 0.0 
0.782789 0.365113 0.0 
0.839669 0.139654 0.0 
0.0865393 -0.00177745 0.0 
0.00304619 -0.000462685 0.0 
0.0410628 -0.0124089 0.0 
0.0105208 -0.00119168 0.0 
0.0711931 -0.000951273 0.0 
0 0 0.0 
0.425273 -0.125598 0.0 
0.471484 -0.0833607 0.0 
0.98432 -0.00708979 0.0 
0.86867 0.0832972 0.0 
0.460059 -0.0430859 0.0 
0.157874 -0.000391737 0.0 
1 0 0.0 
0.527015 -0.0311524 0.0 
0.079357 -0.154944 0.0 
0.76136 0.371235 0.0 
1.0284e-42 3.89595e-44 0.0 
-1.60856e-271 -1.93856e-272 0.0 
0.640894 -0.0176091 0.0 
0.000493827 2.44951e-05 0.0 
0.205094 0.00833045 0.0 
0.0884122 -0.00115429 0.0 
1.00714 0 0.0 
0.749457 0.276013 0.0 
0.00371372 -0.000668806 0.0 
-5.80142e-227 -4.43711e-228 0.0 
0.999885 -2.50508e-06 0.0 
0.000487173 -6.77545e-05 0.0 
0.000264414 -9.21488e-06 0.0 
0.992292 -0.00914723 0.0 
0 0 0.0 
0.152926 0.018242 0.0 
0.999664 -0.000609123 0.0 
1.00196 0 0.0 
0.965238 0.072174 0.0 
0.789866 0.317419 0.0 
0.0596029 0.00535399 0.0 
1.05871 -0.231198 0.0 
0.167324 0.0316239 0.0 
0.00957176 0.000653388 0.0 
4.42034e-267 5.32639e-269 0.0 
0 0 0.0 
0.490178 -0.0492859 0.0 
0.771629 0.363267 0.0 
0.747688 0.0622764 0.0 
0.99989 0.001164 0.0 
1.00089 0.00237021 0.0 
0.864311 0.351157 0.0 
0.995997 0.00248831 0.0 
0.490894 -0.171257 0.0 
0.816358 0.354496 0.0 
0.221634 0.0189707 0.0 
0.999199 -0.00778949 0.0 
0.944835 -0.336017 0.0 
0.572831 -0.0609365 0.0 
0.745565 -0.0904583 0.0 
0.805652 -0.0816237 0.0 
0.99978 3.19439e-05 0.0 
0.259628 0.00235378 0.0 
0.157796 -0.0205389 0.0 
0.329777 0.0458791 0.0 
1.05391 0.102476 0.0 
1.00273 0.00208355 0.0 
0 0 0.0 
0.490443 0.17935 0.0 
0.296323 0.00266044 0.0 
0.000493742 -4.44973e-05 0.0 
0.326455 0.0613055 0.0 
0.021532 -4.24668e-06 0.0 
0.00522245 -0.000386807 0.0 
0.338452 -0.00364734 0.0 
1.00126 -0.002467 0.0 
0.0521146 -0.0104661 0.0 
0.0186674 -0.000630665 0.0 
2.19319e-13 -2.23122e-14 0.0 
0.999633 -1.54468e-05 0.0 
0.00786739 -0.000481708 0.0 
0.810414 0.125879 0.0 
0.915705 -0.0625808 0.0 
0.00679285 0.000984576 0.0 
0.000179137 -1.83026e-05 0.0 
0.453459 -0.0474926 0.0 
0.872922 -0.283857 0.0 
0.132591 0.00861611 0.0 
0.0644757 -0.00638917 0.0 
0.0957866 -0.151752 0.0 
0.988647 -0.00961171 0.0 
0.780639 0.135288 0.0 
0.220009 -0.00388867 0.0 
1.00093 -0.0157022 0.0 
0.178654 0.00147811 0.0 
0.00303697 -0.000615722 0.0 
1.0938 0.14421 0.0 
1.03197 -0.0221617 0.0 
0.800209 0.0722676 0.0 
1.00035 0 0.0 
0.219473 0.000980464 0.0 
0.697461 -0.449641 0.0 
0.768046 0.0863944 0.0 
0.500131 -0.0121918 0.0 
1.01333 -0.00275568 0.0 
0 0 0.0 
0.221201 -0.00221088 0.0 
0.116525 -0.00192561 0.0 
0.0218607 0.00116077 0.0 
6.54142e-150 -2.9557e-151 0.0 
0.772502 -0.291193 0.0 
1.03465 -0.049086 0.0 
0.495152 0.0365051 0.0 
1.00094 -0.000287621 0.0 
0.798245 -0.268237 0.0 
0.952183 -0.0704079 0.0 
5.88139e-262 1.81874e-262 0.0 
0.75995 -0.00922299 0.0 
1.03341 0.0156157 0.0 
0.0495944 -0.119341 0.0 
0.00153038 -0.000217161 0.0 
1 0 0.0 
0.860678 -0.144349 0.0 
0 0 0.0 
0.901697 -0.012061 0.0 
0.853951 0.128637 0.0 
0.591921 0.0796542 0.0 
0.0484209 -0.0172091 0.0 
1.00872 -0.00123018 0.0 
1.01408 0.00674208 0.0 
0.000215981 -1.23658e-05 0.0 
1.00505 0.000821222 0.0 
0.0967979 -0.0163914 0.0 
4.85733e-07 1.55369e-07 0.0 
0.0767036 0.00336456 0.0 
0.647032 -0.0130358 0.0 
0.0175008 -0.00134518 0.0 
0.191696 0.0198231 0.0 
0.313179 0.0219587 0.0 
0.844054 -0.0942899 0.0 
0.0768253 -0.00371197 0.0 
1.00046 0.000228637 0.0 
0.284808 0.138049 0.0 
0.23143 0.0142471 0.0 
0.864287 0.260826 0.0 
-2.66289e-117 2.90396e-118 0.0 
0 0 0.0 
9.78121e-285 9.94579e-287 0.0 
0.498618 -0.0270592 0.0 
-1.02451e-260 -1.23503e-261 0.0 
0.33766 -0.0228789 0.0 
0.00363232 -0.000718593 0.0 
4.10652e-297 -1.67912e-298 0.0 
0.139377 0.00729425 0.0 
0 0 0.0 
0.893391 -0.301388 0.0 
0.688139 0.2853 0.0 