<VTKFile type="UnstructuredGrid" version="0.1" byte_order="LittleEndian">
  <UnstructuredGrid>
    <Piece NumberOfPoints="12653" NumberOfCells="25145">
      <Points>
        <DataArray type = "Float64" NumberOfComponents="3" format="ascii">
0 0 0.0 
14 0 0.0 
14 8 0.0 
0 8 0.0 
4.16782 4.09801 0.0 
3.74137 7.44999 0.0 
4.22703 4.06656 0.0 
3.94467 3.89202 0.0 
4.36462 4.07152 0.0 
4.27592 4.05022 0.0 
4.28019 4.07437 0.0 
4.74769 4.04073 0.0 
4.01517 4.08782 0.0 
12.5949 1.78564 0.0 
4.30612 3.92118 0.0 
5.97188 4.1728 0.0 
4.10666 4.03019 0.0 
3.99833 4.00152 0.0 
4.08492 3.93693 0.0 
9.3838 5.70077 0.0 
3.30345 6.27523 0.0 
4.97365 4.02617 0.0 
4.55263 3.85193 0.0 
4.22741 3.96682 0.0 
4.37834 4.12118 0.0 
4.69972 4.04556 0.0 
4.36723 4.05555 0.0 
4.09625 3.96905 0.0 
4.00554 4.00386 0.0 
8.28818 5.78715 0.0 
11.6293 4.92675 0.0 
4.09533 4.03459 0.0 
4.00922 3.99881 0.0 
4.02803 4.04844 0.0 
4.06476 3.96907 0.0 
4.01927 3.99345 0.0 
8.90659 4.18411 0.0 
4.11094 4.03801 0.0 
4.34134 4.12946 0.0 
4.37665 3.94429 0.0 
3.98196 3.98783 0.0 
5.00749 4.02107 0.0 
4.36023 4.05917 0.0 
4.01706 3.99618 0.0 
4.75977 4.0545 0.0 
4.18503 4.06027 0.0 
6.4779 4.29116 0.0 
11.793 3.42981 0.0 
4.08163 3.94936 0.0 
13.776 6.53269 0.0 
4.08876 3.90738 0.0 
4.12368 4.05157 0.0 
7.56309 7.77942 0.0 
3.83143 4.13079 0.0 
4.01647 3.99236 0.0 
4.99669 4.00391 0.0 
4.03396 4.05254 0.0 
5.00546 4.00308 0.0 
4.97853 4.00468 0.0 
4.27545 4.03498 0.0 
4.05473 4.02614 0.0 
4.45263 3.97321 0.0 
3.80202 4.16781 0.0 
8.14642 2.03159 0.0 
4.71395 3.96274 0.0 
5.00785 4.00312 0.0 
10.8833 7.73481 0.0 
14 6.11123 0.0 
3.88951 3.91169 0.0 
3.96293 3.99513 0.0 
4.04956 3.95606 0.0 
4.67312 4.04842 0.0 
4.40889 4.06903 0.0 
4.02322 3.97925 0.0 
3.99922 3.99464 0.0 
5.03684 4.01469 0.0 
4.81683 4.03139 0.0 
3.70287 4.94098 0.0 
14 5.21618 0.0 
4.10344 3.92289 0.0 
4.32462 4.07589 0.0 
4.23661 3.98314 0.0 
4.4038 3.95868 0.0 
4.83759 3.90341 0.0 
5.00991 4.10716 0.0 
10.8425 1.88491 0.0 
3.99631 4.00733 0.0 
4.24422 7.49665 0.0 
4.00325 3.99344 0.0 
4.35343 3.94951 0.0 
3.99526 4.00176 0.0 
3.05349 4.57182 0.0 
4.63995 4.05092 0.0 
4.58095 4.05816 0.0 
5.00128 3.99352 0.0 
4.50518 4.06394 0.0 
4.08373 4.05666 0.0 
4.70791 4.04537 0.0 
4.01128 4.04737 0.0 
4.27852 0 0.0 
5.04845 4.04311 0.0 
4.64774 4.05136 0.0 
4.08438 4.04648 0.0 
11.7019 2.59294 0.0 
4.13434 4.07811 0.0 
4.22267 4.07692 0.0 
4.03921 4.05963 0.0 
4.39899 3.96665 0.0 
5.50713 3.96917 0.0 
4.35017 3.94589 0.0 
4.12438 3.96136 0.0 
5.09274 4.07102 0.0 
11.2037 6.16116 0.0 
4.10091 4.06894 0.0 
4.1741 4.07586 0.0 
4.82055 4.03077 0.0 
3.7391 1.31631 0.0 
13.4936 4.5342 0.0 
4.34822 4.08628 0.0 
4.06059 4.04046 0.0 
4.90893 3.98232 0.0 
3.91267 2.38613 0.0 
4.02873 4.0411 0.0 
4.88146 4.04087 0.0 
4.96845 3.9332 0.0 
3.99697 4.00162 0.0 
4.23653 4.08127 0.0 
4.12124 3.98374 0.0 
4.15151 3.97477 0.0 
4.17297 4.07201 0.0 
4.25994 4.06534 0.0 
4.45276 4.06037 0.0 
4.99458 4.03862 0.0 
4.51609 4.06368 0.0 
4.02244 4.02798 0.0 
4.10797 4.05088 0.0 
4.12635 4.07409 0.0 
0 1.4212 0.0 
4.02217 3.98852 0.0 
4.71446 4.0444 0.0 
4.58941 3.97924 0.0 
5.00875 4.00222 0.0 
13.3909 6.29285 0.0 
5.01331 3.98969 0.0 
4.00161 4.0037 0.0 
4.71965 4.11231 0.0 
5.05415 4.0144 0.0 
6.12655 3.88405 0.0 
4.12613 3.92733 0.0 
4.96318 3.99619 0.0 
3.96221 4.17248 0.0 
4.19206 3.91938 0.0 
4.5215 3.97637 0.0 
3.60927 4.02081 0.0 
4.09641 3.95124 0.0 
4.86798 4.03264 0.0 
3.96291 4.03142 0.0 
5.61069 8 0.0 
4.16991 4.04935 0.0 
4.17721 4.06988 0.0 
4.23532 3.95103 0.0 
3.9968 4.05414 0.0 
3.99252 4.00665 0.0 
3.23048 7.84015 0.0 
4.02509 3.9766 0.0 
3.99394 4.15437 0.0 
4.13972 3.95821 0.0 
3.97706 4.03149 0.0 
4.13754 3.96494 0.0 
4.52499 3.97656 0.0 
4.21228 3.92466 0.0 
5.06886 4.12388 0.0 
4.19057 4.05281 0.0 
4.10081 3.94382 0.0 
4.05695 3.98888 0.0 
4.13897 4.0652 0.0 
4.22012 3.96656 0.0 
4.15918 4.06546 0.0 
5.00368 4.02219 0.0 
4.73268 4.02435 0.0 
9.8334 5.51863 0.0 
4.14612 4.03421 0.0 
4.1221 3.94586 0.0 
4.15753 4.10167 0.0 
3.96821 4.02723 0.0 
4.18309 4.12442 0.0 
3.96476 4.03852 0.0 
12.2999 7.52463 0.0 
3.97233 4.04194 0.0 
7.6791 6.07845 0.0 
4.08458 4.03009 0.0 
4.07601 3.95338 0.0 
1.12644 3.34247 0.0 
3.92251 4.00785 0.0 
5.00542 4.01556 0.0 
4.06911 3.96869 0.0 
4.08856 4.12808 0.0 
4.34768 3.9099 0.0 
3.41321 0.818569 0.0 
4.36254 3.96941 0.0 
3.00181 3.79086 0.0 
5.04007 4.02119 0.0 
2.06394 2.66372 0.0 
13.2653 2.91651 0.0 
4.00756 4.02287 0.0 
4.00612 4.04547 0.0 
4.23103 3.92099 0.0 
4.98371 4.01321 0.0 
4.00491 4.00281 0.0 
4.0175 4.04099 0.0 
5.02315 4.00602 0.0 
5.02091 3.98132 0.0 
4.14775 4.05885 0.0 
4.7802 4.0649 0.0 
4.02863 3.97467 0.0 
4.10761 4.0532 0.0 
6.25214 4.08628 0.0 
9.70989 7.75915 0.0 
4.14444 4.05735 0.0 
4.02341 4.03456 0.0 
9.42923 3.81397 0.0 
4.52724 7.41561 0.0 
5.05919 4.01855 0.0 
2.15923 7.15628 0.0 
4.03691 3.96558 0.0 
4.08433 4.05007 0.0 
4.60701 3.95862 0.0 
4.4722 4.06538 0.0 
0 2.61339 0.0 
4.74042 3.98589 0.0 
7.18887 6.80823 0.0 
5.1948 4.01882 0.0 
1.24078 0.550265 0.0 
9.10545 7.45594 0.0 
2.38032 0.204862 0.0 
4.30512 4.05061 0.0 
4.11851 4.05833 0.0 
4.25854 3.983 0.0 
4.01517 4.03055 0.0 
4.0324 3.93191 0.0 
3.99882 3.99972 0.0 
11.8904 4.76274 0.0 
4.00596 3.99585 0.0 
3.80043 4.03886 0.0 
1.03306 6.23145 0.0 
3.99908 3.98836 0.0 
8.76112 4.31939 0.0 
4.58638 4.06824 0.0 
4.93874 4.01197 0.0 
5.82879 4.74509 0.0 
11.4018 6.00224 0.0 
4.21507 3.9482 0.0 
4.41111 4.06709 0.0 
4.97222 4.02124 0.0 
4.99557 4.00446 0.0 
4.19735 4.0441 0.0 
4.67284 4.04971 0.0 
4.05719 3.97511 0.0 
4.08678 3.96894 0.0 
11.9473 3.59927 0.0 
5.1327 4.04445 0.0 
4.69135 3.98328 0.0 
4.08293 3.9416 0.0 
5.00318 4.00255 0.0 
9.29551 7.05713 0.0 
4.36608 3.971 0.0 
3.31452 2.29377 0.0 
4.68812 4.04787 0.0 
3.9901 3.98452 0.0 
4.13137 4.09569 0.0 
4.34616 4.10581 0.0 
4.05935 4.03931 0.0 
4.20406 3.96819 0.0 
4.01306 4.13711 0.0 
4.56182 4.05908 0.0 
4.1797 4.07872 0.0 
4.40197 3.97223 0.0 
4.40826 4.06724 0.0 
1.59259 4.11579 0.0 
4.82073 3.95798 0.0 
3.59386 3.60045 0.0 
13.2253 0 0.0 
10.1351 3.82958 0.0 
4.07414 3.49364 0.0 
4.19278 3.96728 0.0 
5.06347 3.99507 0.0 
4.07696 3.96537 0.0 
3.82863 4.23506 0.0 
4.77744 3.98758 0.0 
5.08198 4.04957 0.0 
5.02947 4.00625 0.0 
2.85705 1.68624 0.0 
13.2638 4.39299 0.0 
8.11547 3.80085 0.0 
4.52784 3.97633 0.0 
4.73083 4.053 0.0 
13.4125 7.46568 0.0 
4.08711 3.98632 0.0 
3.99883 4.01382 0.0 
4.00943 4.02943 0.0 
1.72015 8 0.0 
4.11299 4.48818 0.0 
8.2761 4.17691 0.0 
4.10701 4.0495 0.0 
4.10501 3.93754 0.0 
4.84023 3.97761 0.0 
4.13386 4.04638 0.0 
4.85716 3.99182 0.0 
4.04342 3.976 0.0 
4.89353 1.17814 0.0 
4.00938 3.99278 0.0 
3.99752 4.02893 0.0 
4.01884 3.99521 0.0 
3.89423 3.9355 0.0 
3.98628 3.99582 0.0 
4.03012 4.07947 0.0 
4.98756 3.96669 0.0 
4.01204 4.00974 0.0 
4.00597 3.90148 0.0 
4.9931 4.01893 0.0 
4.24536 4.08029 0.0 
4.97445 3.98438 0.0 
8.1554 7.24604 0.0 
4.76724 3.98699 0.0 
4.00774 3.99043 0.0 
3.98163 4.03116 0.0 
3.89928 6.84675 0.0 
4.3171 4.12404 0.0 
7.05289 5.97036 0.0 
4.15198 4.02175 0.0 
4.17688 3.91279 0.0 
9.52987 5.94501 0.0 
5.10311 4.0306 0.0 
4.28205 4.09231 0.0 
5.07095 2.11145 0.0 
3.93422 3.94134 0.0 
4.06268 4.04295 0.0 
5.55067 5.01921 0.0 
3.98027 4.05285 0.0 
4.33949 4.07422 0.0 
4.33921 3.91937 0.0 
3.98817 4.01223 0.0 
4.31857 4.08886 0.0 
4.04077 3.99338 0.0 
3.47517 3.78656 0.0 
4.27297 4.08509 0.0 
2.01139 2.3485 0.0 
3.98465 3.9804 0.0 
7.86125 4.16306 0.0 
2.65567 3.12664 0.0 
4.90597 4.01588 0.0 
11.458 5.12058 0.0 
4.78213 3.98695 0.0 
3.98795 3.99915 0.0 
5.18793 4.05304 0.0 
3.99805 4.00952 0.0 
5.00166 3.98677 0.0 
3.98111 4.00805 0.0 
3.99466 4.00664 0.0 
3.99352 3.97666 0.0 
4.05147 4.03 0.0 
4.45506 4.06655 0.0 
4.67002 3.84867 0.0 
4.07748 3.92653 0.0 
4.73071 4.03455 0.0 
4.27492 4.05293 0.0 
4.10308 3.95678 0.0 
4.59591 4.05621 0.0 
4.28327 3.96812 0.0 
4.99693 3.99847 0.0 
4.79292 3.98856 0.0 
4.63837 4.03036 0.0 
4.00057 3.99697 0.0 
3.98206 3.97395 0.0 
12.9901 3.16776 0.0 
4.95559 4.10258 0.0 
5.95927 1.49978 0.0 
4.16897 3.94561 0.0 
13.1833 1.01136 0.0 
0.372474 6.03503 0.0 
4.00375 4.03912 0.0 
5.80431 4.02323 0.0 
3.99121 4.03339 0.0 
3.99417 4.04189 0.0 
4.4255 4.08285 0.0 
4.33415 4.0546 0.0 
1.56175 5.17905 0.0 
3.99997 3.99241 0.0 
4.13298 4.05488 0.0 
4.55709 3.97758 0.0 
4.90442 4.01786 0.0 
4.41083 4.08746 0.0 
3.98918 4.03714 0.0 
5.04269 4.00778 0.0 
4.01059 4.0357 0.0 
4.02402 4.04636 0.0 
4.35258 3.97021 0.0 
4.09975 3.95651 0.0 
4.13306 4.06692 0.0 
4.00056 4.04248 0.0 
1.05155 0.371395 0.0 
1.81725 2.57404 0.0 
3.9896 4.00463 0.0 
5.18814 3.88706 0.0 
3.98613 3.98439 0.0 
3.93685 3.99745 0.0 
4.00273 4.04763 0.0 
4.02428 4.00868 0.0 
2.46283 1.41429 0.0 
10.7922 8 0.0 
4.68383 4.08446 0.0 
4.16698 3.9679 0.0 
4.11499 4.15122 0.0 
0.960822 0 0.0 
4.82696 3.99032 0.0 
3.98643 3.99986 0.0 
4.97232 4.00641 0.0 
4.14442 3.95991 0.0 
3.99581 3.98523 0.0 
4.97939 4.05504 0.0 
4.72729 4.04262 0.0 
3.98481 4.00073 0.0 
3.97761 4.0047 0.0 
4.2845 3.96848 0.0 
4.40567 4.06953 0.0 
4.80448 4.05822 0.0 
9.05989 0 0.0 
4.11077 4.06077 0.0 
3.98558 4.00796 0.0 
3.8534 3.9981 0.0 
4.32148 4.06836 0.0 
4.39562 3.97106 0.0 
4.49854 4.06317 0.0 
4.12173 4.07245 0.0 
4.27982 4.05867 0.0 
14 6.70716 0.0 
4.06498 3.96487 0.0 
4.99712 4.01383 0.0 
4.97714 4.00687 0.0 
4.11333 3.95725 0.0 
4.84006 3.99126 0.0 
4.29638 3.96788 0.0 
4.72101 3.94679 0.0 
4.07076 4.03121 0.0 
5.17448 3.98177 0.0 
9.26731 0.467907 0.0 
3.99705 4.04765 0.0 
4.96232 3.98271 0.0 
13.7588 4.46427 0.0 
4.27037 4.11663 0.0 
5.0004 3.98388 0.0 
4.11868 3.93345 0.0 
4.13787 3.93543 0.0 
4.57501 3.95546 0.0 
4.10918 3.95694 0.0 
4.02241 4.04141 0.0 
3.9487 4.03134 0.0 
4.1093 3.95442 0.0 
4.13405 3.96704 0.0 
4.02972 4.05235 0.0 
4.02642 3.97524 0.0 
4.01777 4.04818 0.0 
3.96029 4.05564 0.0 
8.66912 5.53469 0.0 
4.0266 3.96232 0.0 
4.84885 5.80485 0.0 
4.10695 3.94953 0.0 
10.2895 1.59085 0.0 
13.7717 3.68819 0.0 
1.25763 5.52376 0.0 
0.747951 5.69629 0.0 
4.03778 3.99834 0.0 
4.52018 3.96526 0.0 
[...]
<PointData>
  <DataArray type = "Float64" Name="Vitesse" NumberOfComponents="3" format="ascii">
1 0 0.0 
1.0062 0 0.0 
1.00483 0 0.0 
1 0 0.0 
1.02913 0.172863 0.0 
1.00635 0.00157452 0.0 
0.0669688 0.00359687 0.0 
0.918682 -0.128181 0.0 
0.0599125 -0.000317307 0.0 
0 0 0.0 
0.186001 0.00981068 0.0 
0.00671042 -0.000464946 0.0 
0.898099 0.245702 0.0 
1.00772 0.000845782 0.0 
0.854041 -0.0223524 0.0 
0.978064 -0.0132189 0.0 
0 0 0.0 
0.0448915 -0.0691161 0.0 
1.05192 -0.186298 0.0 
1.00887 -0.00132926 0.0 
1.00545 0.00606892 0.0 
0.0662637 -0.00994486 0.0 
1.06733 -0.00695615 0.0 
0.0161743 0.000581691 0.0 
0.967317 0.0387799 0.0 
-2.40916e-32 9.25304e-34 0.0 
0 0 0.0 
0.0732554 -0.00603893 0.0 
-3.55389e-58 -4.36737e-58 0.0 
1.00951 -0.00176497 0.0 
1.0084 -0.00150235 0.0 
0 0 0.0 
0 0 0.0 
0.835961 0.359105 0.0 
0.264867 -0.045978 0.0 
0 0 0.0 
0.944663 -0.00196505 0.0 
0 0 0.0 
1.06443 0.0639562 0.0 
0.433825 0.00438739 0.0 
0.590413 -0.228735 0.0 
0.0596936 -0.0182324 0.0 
0 0 0.0 
0 0 0.0 
0.113382 -0.0113234 0.0 
4.89707e-68 4.84823e-69 0.0 
1.00988 -0.00767766 0.0 
1.01042 0.00136041 0.0 
0.890699 -0.152195 0.0 
1.0058 -0.00083993 0.0 
1.07735 -0.174484 0.0 
1.47637e-06 2.94046e-07 0.0 
1.00877 -0.000177135 0.0 
0.919414 0.0518323 0.0 
0 0 0.0 
0.00894706 -0.0029332 0.0 
0.867767 0.349058 0.0 
0.019957 -0.00648314 0.0 
2.63383e-14 -3.71602e-15 0.0 
0 0 0.0 
0 0 0.0 
0.00697896 0.000572671 0.0 
0.935811 0.0488969 0.0 
1.00948 0.000783586 0.0 
0.240349 0.00967361 0.0 
0.0249179 -0.00486687 0.0 
1.00657 -0.000137686 0.0 
1.00613 -0.00121267 0.0 
0.89963 -0.07878 0.0 
0.670899 -0.0827923 0.0 
0.933951 -0.234519 0.0 
0.000393636 -4.2081e-05 0.0 
0.0231873 -0.00116456 0.0 
0.295402 -0.103585 0.0 
0.192603 -0.294226 0.0 
0.0617636 -0.00937692 0.0 
0.00426048 -0.0004539 0.0 
1.00463 0.0242552 0.0 
1.00608 -0.00282885 0.0 
1.08663 -0.165259 0.0 
0.171481 0.00382248 0.0 
1.53689e-145 8.06592e-147 0.0 
0.197574 0.00471046 0.0 
0.85231 0.0211688 0.0 
0.73701 -0.049725 0.0 
1.00858 0.000647292 0.0 
0.18581 0.107695 0.0 
1.00773 0.00123899 0.0 
1.49569e-60 -1.2141e-60 0.0 
0.347046 0.00392535 0.0 
0.164413 -0.0986344 0.0 
0.991166 0.0110481 0.0 
1.11215e-19 -8.97704e-21 0.0 
0.0100489 -0.00077889 0.0 
0.0642019 0.0140745 0.0 
0.0124556 -0.000679399 0.0 
0.609637 0.161956 0.0 
0.00613373 -0.000541707 0.0 
0.788466 0.341501 0.0 
1.00631 0 0.0 
0.196918 -0.0262537 0.0 
0.00355845 -0.000424613 0.0 
0.128436 0.0238544 0.0 
1.00888 0.00110049 0.0 
0.851074 0.168193 0.0 
0.404227 0.0383676 0.0 
0.911029 0.337487 0.0 
0.0755005 0.0023905 0.0 
0.465383 0.0131429 0.0 
0.412395 0.00293211 0.0 
0.27093 -0.0198894 0.0 
0.445288 -0.0380207 0.0 
1.00769 -0.000902028 0.0 
0.832959 0.204133 0.0 
0.581188 0.0827879 0.0 
0.00362424 -0.000275136 0.0 
1.00574 -0.00367132 0.0 
1.01762 -0.000443314 0.0 
0.394891 0.00910556 0.0 
0.159151 0.0523046 0.0 
0.116565 0.00560924 0.0 
1.00798 -0.0098473 0.0 
0.731444 0.332058 0.0 
0.0940334 -0.0107514 0.0 
0.618493 0.0274471 0.0 
0.0968603 -0.0898542 0.0 
0.483955 0.0444823 0.0 
0 0 0.0 
-6.27941e-102 6.1893e-104 0.0 
0.463521 0.0644891 0.0 
-1.61754e-50 -5.12e-52 0.0 
-1.6114e-178 -1.02408e-180 0.0 
0.145268 -0.0208707 0.0 
0.0174708 -0.00157994 0.0 
0.33396 0.174803 0.0 
0.0692291 0.0132446 0.0 
0.801731 0.164533 0.0 
1 0 0.0 
-5.59864e-74 2.65437e-74 0.0 
0.00412286 -0.000288456 0.0 
0.00448658 0.000439134 0.0 
0.028034 -0.0024316 0.0 
1.00631 -0.00101322 0.0 
0.105539 0.0187693 0.0 
4.21578e-32 7.03683e-32 0.0 
0.736176 -0.0348567 0.0 
0.077099 -0.00646539 0.0 
0.896637 0.0099533 0.0 
1.05266 -0.132342 0.0 
0.0112497 0.000658404 0.0 
0.941693 0.12492 0.0 
1.01877 -0.078277 0.0 
2.17455e-16 1.58251e-17 0.0 
0.95272 0.00199805 0.0 
0.754176 -0.102203 0.0 
0.0397992 -0.00510025 0.0 
0.70675 0.0959912 0.0 
1.00948 0 0.0 
0 0 0.0 
0.36912 0.0472374 0.0 
0.371848 -0.00629513 0.0 
0.777951 0.264169 0.0 
0.283028 0.0457907 0.0 
1.00477 0.000447677 0.0 
0.437095 -0.154175 0.0 
0.943685 0.155344 0.0 
0.332376 -0.0204054 0.0 
0.661528 0.154823 0.0 
0.117789 -0.00324698 0.0 
2.59209e-06 3.42099e-07 0.0 
0.931896 -0.0564035 0.0 
0.857696 -0.0505666 0.0 
0 0 0.0 
0.915764 -0.131161 0.0 
0 0 0.0 
0.432303 0.0767721 0.0 
0.0220953 0.000745235 0.0 
0.306186 0.0420172 0.0 
0.063022 -0.0176518 0.0 
2.46233e-97 -3.15669e-99 0.0 
1.00909 -0.00124799 0.0 
0 0 0.0 
0.774881 -0.0838731 0.0 
1.06519 0.189336 0.0 
0.673418 0.0994656 0.0 
1.10673 0.168689 0.0 
0.724142 0.121381 0.0 
1.00588 -0.000259785 0.0 
0.721635 0.156058 0.0 
1.00983 -0.00182863 0.0 
0 0 0.0 
0.819745 -0.14557 0.0 
0.999382 -0.000586571 0.0 
0.792175 -0.0106772 0.0 
0.0408231 -0.0162396 0.0 
0.248706 -0.0414824 0.0 
1.03015 0.213399 0.0 
0.941891 -0.0212386 0.0 
1.00441 -0.00209462 0.0 
0.0201592 0.000368986 0.0 
0.987438 -0.0037387 0.0 
0.0786332 -0.0142801 0.0 
0.99926 -0.00322461 0.0 
1.00869 0.0015176 0.0 
0.47361 0.331424 0.0 
0.761275 0.327655 0.0 
0.946632 -0.052225 0.0 
0.0231224 -0.00480819 0.0 
-1.62519e-64 -1.99719e-64 0.0 
0.767056 0.3722 0.0 
0.0457113 -0.00321368 0.0 
0.1799 0.0236459 0.0 
0.11116 0.0161411 0.0 
0.222197 -0.02 0.0 
0.479438 -0.160001 0.0 
0.189441 0.0402376 0.0 
0.738853 -0.0105115 0.0 
1.00721 -0.000141084 0.0 
0.0667628 0.0173063 0.0 
0.610142 0.305671 0.0 
0.95627 0.00162262 0.0 
1.00851 0.00122681 0.0 
0.0871641 -0.00943698 0.0 
1.00202 0.00172268 0.0 
0.786101 -0.23154 0.0 
0.315594 0.0747196 0.0 
0.252947 0.0091935 0.0 
0.00713693 0.000228143 0.0 
1 0 0.0 
0.0072695 0.000489664 0.0 
1.00973 -0.00104417 0.0 
0.186698 -0.00616724 0.0 
1.0005 -0.00046754 0.0 
1.00766 -0.00035979 0.0 
1.00202 -0.00037762 0.0 
1.825e-179 1.34146e-180 0.0 
0.319899 0.060515 0.0 
0 0 0.0 
0.603214 0.336562 0.0 
1.01062 -0.258711 0.0 
0.0489769 -0.117259 0.0 
1.00931 -0.0016273 0.0 
0 0 0.0 
0.908451 0.0114432 0.0 
1.00024 0.00139671 0.0 
0.479661 -0.44641 0.0 
1.00926 -0.0028666 0.0 
0.128717 -0.00886865 0.0 
0.000988737 -0.000131669 0.0 
1.01628 -0.0101443 0.0 
1.0078 -0.000982284 0.0 
0.462526 -0.0138909 0.0 
-5.66048e-111 2.39209e-112 0.0 
0.0444102 -0.00691878 0.0 
0.00901843 -0.0028556 0.0 
0 0 0.0 
0.0104394 -0.00132253 0.0 
9.842e-05 -1.15382e-05 0.0 
0.115544 -0.0139497 0.0 
1.01232 -5.29199e-05 0.0 
0.255332 -0.0227414 0.0 
0.0108944 0.000539322 0.0 
1.01598 -0.181093 0.0 
0.0149565 -0.00721305 0.0 
1.00774 -0.000588939 0.0 
0.00112136 9.48004e-05 0.0 
1.00333 -0.00790942 0.0 
0.00905738 -0.000472429 0.0 
0.595051 -0.347284 0.0 
1.05734 0.21679 0.0 
0.795868 0.0346663 0.0 
0.111908 0.0361492 0.0 
4.519e-08 1.34445e-09 0.0 
0.946544 0.181624 0.0 
0.000188981 -1.68552e-05 0.0 
0.637234 0.0892718 0.0 
3.13388e-08 3.02246e-11 0.0 
-5.71892e-108 2.41678e-109 0.0 
0.998252 0.000813988 0.0 
0.328665 0.0132377 0.0 
0.98128 -0.0255188 0.0 
1.00648 0 0.0 
0.93609 8.0475e-05 0.0 
1.01752 -0.0439195 0.0 
4.19451e-05 2.28113e-06 0.0 
0.121286 0.0110974 0.0 
0.346395 -0.0491229 0.0 
0.953597 0.060909 0.0 
0.00804794 0.000456136 0.0 
0.260008 -0.0287658 0.0 
0.0532153 -0.00209767 0.0 
1.00254 -0.00412978 0.0 
1.00514 -0.00218555 0.0 
0.979508 0.00145149 0.0 
0.00536484 0.000284721 0.0 
0.0804064 -0.00816464 0.0 
1.0053 -0.000283466 0.0 
0 0 0.0 
0.311265 0.265227 0.0 
0.62094 0.370547 0.0 
1.00131 0 0.0 
1.02563 0.0602435 0.0 
0.944785 -0.00421347 0.0 
1.31205e-06 2.7194e-07 0.0 
1.00139 -0.14403 0.0 
0.133137 0.00596414 0.0 
0 0 0.0 
0.00405855 0.000304172 0.0 
0.0975818 -0.0100249 0.0 
1.00878 -0.0019989 0.0 
0 0 0.0 
0.606891 0.315207 0.0 
0 0 0.0 
0.879032 -0.0733671 0.0 
0.460497 -0.192748 0.0 
0.919449 0.282775 0.0 
0.305444 0.020484 0.0 
0 0 0.0 
0.963956 -0.192099 0.0 
0.0472203 -0.0118725 0.0 
0.430003 0.0370249 0.0 
0.129023 0.00777626 0.0 
1.00842 -0.000598225 0.0 
0.0101264 0.000992307 0.0 
0 0 0.0 
0.646289 0.180654 0.0 
1.00758 0.00348899 0.0 
1.04974 0.0739382 0.0 
1.0109 -0.00221982 0.0 
0 0 0.0 
1.07391 -0.0967977 0.0 
1.00861 -0.00116702 0.0 
0.156636 -0.0161729 0.0 
0.643221 0.0458017 0.0 
1.01267 -0.00286204 0.0 
0.853092 -0.117753 0.0 
0.274751 0.0797795 0.0 
1.0211 -0.00650897 0.0 
0.759605 0.197766 0.0 
0.123106 0.00173943 0.0 
0.846362 -0.0158365 0.0 
0.433213 0.110535 0.0 
0.493097 0.0213641 0.0 
0 0 0.0 
0.973788 -0.0143006 0.0 
0.488853 0.0336867 0.0 
0.999968 -0.00305918 0.0 
0.657355 -0.286303 0.0 
0.932138 -0.00395614 0.0 
0.996511 -0.00572789 0.0 
1.58831e-68 -1.75103e-69 0.0 
1.00965 -0.00120216 0.0 
0.0164542 0.00142608 0.0 
0.398476 -0.148057 0.0 
0.343693 -0.0258334 0.0 
0.197598 0.178547 0.0 
0.124575 0.0176219 0.0 
0.503755 0.00923617 0.0 
0.221862 0.0683607 0.0 
0.709339 -0.37851 0.0 
3.23303e-128 5.54771e-129 0.0 
0.0111069 -0.000187253 0.0 
1.05665 0.00343883 0.0 
1.0794 -0.201646 0.0 
-2.12459e-49 5.97013e-51 0.0 
0 0 0.0 
0.528919 -0.0575094 0.0 
0.000386094 4.41769e-06 0.0 
0.00708615 0.000190942 0.0 
0.00706811 -1.59508e-05 0.0 
0.0063598 0.000492508 0.0 
-8.19998e-289 7.9558e-290 0.0 
0.0286902 -0.0854608 0.0 
0.716272 -0.267842 0.0 
1.00771 0.00163119 0.0 
0.686457 -0.0463372 0.0 
1.01043 -0.000352388 0.0 
0.621164 -0.03777 0.0 
1.00681 0.000431579 0.0 
1.00002 0.000494052 0.0 
0.715737 0.336887 0.0 
0.450704 -0.00449569 0.0 
0.647292 0.256075 0.0 
0.711462 0.270842 0.0 
0.285255 -0.00447387 0.0 
1.31406e-157 9.65894e-159 0.0 
0.999491 0.00263347 0.0 
0.276068 -0.347539 0.0 
0.0437184 0.00858376 0.0 
0.00536942 0.000783444 0.0 
0.00149037 -0.000158452 0.0 
0.378626 -0.00136205 0.0 
0.676418 0.241342 0.0 
0.0659644 -0.00160995 0.0 
0.708495 0.375329 0.0 
0.817849 0.364191 0.0 
0.000129967 1.38575e-05 0.0 
0.557522 -0.0640032 0.0 
0.53962 0.100232 0.0 
0.727597 0.308051 0.0 
1.00035 -0.000266254 0.0 
0.999516 -0.0025234 0.0 
0.344831 -0.0250061 0.0 
0.914343 0.0333216 0.0 
0.608364 -0.292666 0.0 
0.763423 -0.0392444 0.0 
0.761999 0.305024 0.0 
0 0 0.0 
1.00189 -0.00276134 0.0 
1.00655 0 0.0 
0.388722 -0.0247658 0.0 
0.000103624 2.12413e-06 0.0 
1.05079 0.183679 0.0 
1.00031 0 0.0 
0.00587687 0.000314664 0.0 
0.424056 -0.124346 0.0 
0.00090423 -8.59781e-05 0.0 
0.265659 -0.0151609 0.0 
0.579729 -0.434363 0.0 
0.256282 -0.0269154 0.0 
0.00296083 -0.000289131 0.0 
0.448326 -0.100977 0.0 
0.540645 -0.0345282 0.0 
0.000334926 8.78129e-06 0.0 
0.0302489 -6.06086e-05 0.0 
0.175808 -0.0171726 0.0 
1.00807 0 0.0 
0.49597 0.10641 0.0 
0.439224 0.024495 0.0 
0.875929 -0.0115429 0.0 
5.08697e-09 1.52326e-10 0.0 
0.00927363 0.000539884 0.0 
-1.03643e-55 1.95976e-57 0.0 
0.789649 0.165745 0.0 
0 0 0.0 
1.0055 -0.000767747 0.0 
0.473013 -0.0838716 0.0 
0.0331294 -0.0117957 0.0 
0.00363265 -0.000679534 0.0 
0.460827 -0.0420342 0.0 
7.34946e-16 1.60647e-17 0.0 
0.0153401 0.000870499 0.0 
0.424969 0.0143946 0.0 
0 0 0.0 
0.265733 0.0170122 0.0 
1.00812 0.000155095 0.0 
0.748612 0.277231 0.0 
0.137764 0.00730287 0.0 
1.00647 -0.0048362 0.0 
1.04175 0.0987229 0.0 
0.150335 0.0178098 0.0 
1.01299 -0.131773 0.0 
0.935949 -0.0990083 0.0 
0.284248 0.00956382 0.0 
0.491507 -0.0486387 0.0 
0.768808 0.364605 0.0 
0.74688 0.0632959 0.0 
0.579229 -0.0613221 0.0 
0.0560079 -0.000639375 0.0 
0.863483 0.354135 0.0 
0.493417 -0.172528 0.0 
0.814369 0.356015 0.0 
0.782155 0.134946 0.0 
1.00937 -0.00173751 0.0 
0.943311 -0.33461 0.0 
1.0165 0.00389138 0.0 
0.746371 -0.0901096 0.0 
1.00845 0.00052483 0.0 
0.989172 0.00268749 0.0 
0.999967 0.00202238 0.0 
1.00001 0.00108304 0.0 
0 0 0.0 
0.139119 0.00495887 0.0 
1.00669 0.000210091 0.0 
0.415306 -0.00496601 0.0 
1.01014 -0.00246772 0.0 
0.0459355 -0.00984238 0.0 
0.407111 -0.00329518 0.0 
0.809886 0.12722 0.0 
0.00951839 0.00097326 0.0 
0.455189 -0.047595 0.0 
0.00683527 7.76014e-05 0.0 
0.439054 -0.0103815 0.0 
1.00996 0.000411591 0.0 
1.0066 0.00030537 0.0 
0.497322 -0.353785 0.0 
0 0 0.0 
-4.39263e-266 -2.58846e-267 0.0 
0.3502 0.240288 0.0 
1.00708 0.000301035 0.0 
0.697664 -0.449012 0.0 
0.767712 0.0872227 0.0 
0.194914 0.0541798 0.0 
2.00565e-05 -1.98166e-06 0.0 
0.00755137 -0.000202991 0.0 
0.607024 -0.0396648 0.0 
0.60978 -0.464478 0.0 
0.772296 -0.290328 0.0 
0.655534 0.115394 0.0 
0.0920478 0.0996957 0.0 
1.00772 -0.000203808 0.0 
0.043166 0.00188513 0.0 
0.17158 0.0126546 0.0 
0.0830882 0.00717912 0.0 
6.66078e-05 7.08857e-07 0.0 
1.01072 3.15807e-05 0.0 
1.01185 -0.00135148 0.0 
1.05205 0.00121951 0.0 
0.590911 0.0805167 0.0 
0.0430098 -0.0166868 0.0 
0.98547 -0.0293946 0.0 
1.12382e-144 5.89804e-146 0.0 
0.41777 0.017228 0.0 
0.89263 -0.301534 0.0 
0 0 0.0 
0.927606 0.000154914 0.0 
0.0626016 0.0480898 0.0 
0.0572958 0.00888325 0.0 
0.0198631 0.000653417 0.0 
0.862003 0.258422 0.0 
0 0 0.0 
1.044 -0.0953449 0.0 
1.00984 0.00117749 0.0 
0.0433162 0.0104125 0.0 
0.0799353 0.0101794 0.0 
1.27461e-12 6.86586e-13 0.0 
0.0965419 0.00495085 0.0 
0.966102 0.305078 0.0 
0.122771 0.0196291 0.0 
0 0 0.0 
0.00480123 0.000301234 0.0 
0.166723 -0.0173854 0.0 
1 -1.02833e-277 0.0 
0.27919 -0.0318335 0.0 
0.0251203 0.00674366 0.0 
1 0 0.0 
0.133544 -0.0767543 0.0 
0.0114479 -0.00061673 0.0 
1.00045 0.00516932 0.0 
0.694309 -0.000429837 0.0 
0 0 0.0 
2.56541e-07 9.37751e-08 0.0 
0.00441664 0.00041391 0.0 
0 0 0.0 
7.32546e-06 -7.55805e-07 0.0 
1.01219 -0.294268 0.0 
0.00347983 -0.000177572 0.0 
0.32332 0.165592 0.0 
0.88955 -0.0275078 0.0 
0.00968832 0.000469075 0.0 
0.350617 0.0294464 0.0 
5.19035e-05 1.64424e-06 0.0 
0.64511 -0.305552 0.0 
0.134079 0.00421505 0.0 
0 0 0.0 
1.00341 -0.00366924 0.0 
0.016134 -0.00899914 0.0 
1.00682 0.256712 0.0 
0.838373 0.199136 0.0 
0.0116365 -0.000975082 0.0 
1.01048 -0.000939007 0.0 
0 0 0.0 
0.999925 -0.00226562 0.0 
0.983167 0.0804543 0.0 
1.00782 -0.000740202 0.0 
0.454538 0.160294 0.0 
0.727215 0.191182 0.0 
1.00638 0 0.0 
0.678081 0.199061 0.0 
6.11271e-25 1.46515e-26 0.0 
0.500769 0.15191 0.0 
1.00868 -0.00121366 0.0 
0.298061 0.114447 0.0 
0.0294701 -0.000296134 0.0 
1.00894 -0.000760686 0.0 
1.03632 -0.272847 0.0 
0.010092 4.27189e-06 0.0 
3.40867e-05 -3.61336e-06 0.0 
0.719782 0.184613 0.0 
0.593397 -0.073167 0.0 
0.00593191 0.00117738 0.0 
-3.71916e-33 -5.40816e-34 0.0 
1.00939 0.000151117 0.0 
0.536842 -0.0620955 0.0 
1.00611 -0.000372304 0.0 
0.0509221 -0.000180145 0.0 
0.834382 0.276643 0.0 
1.09306 -0.096296 0.0 
1.00811 -0.0448582 0.0 
1.01159 -0.000978822 0.0 
0.70704 -0.114298 0.0 
0.126496 0.0236816 0.0 
0 0 0.0 
3.37711e-82 2.61881e-83 0.0 
0.95116 0.283424 0.0 
-1.62058e-125 -9.83921e-126 0.0 
0 0 0.0 
0.048554 -0.00346458 0.0 
0.997984 -0.00214592 0.0 
0.943744 -0.359613 0.0 
0.940028 0.0317783 0.0 
0.693171 -0.289061 0.0 
0 0 0.0 
1.01041 -0.00189761 0.0 
0.298671 -0.0259225 0.0 
0 0 0.0 
1.00834 0 0.0 
0.999636 -0.00159187 0.0 
1.00974 -0.0019997 0.0 
0.97542 0.282919 0.0 
0.65069 0.276984 0.0 
0.0487814 -0.00524515 0.0 
0.921901 -0.303213 0.0 
1.00003 0.000514896 0.0 
0.745802 -0.428696 0.0 
3.29737e-86 2.30215e-87 0.0 
0.161025 0.167765 0.0 
0.00542252 -0.00107718 0.0 
-2.5486e-280 2.94446e-281 0.0 
0.117651 -0.0214767 0.0 
0.81955 -0.245045 0.0 
0.905372 0.331899 0.0 
0.871805 -0.31789 0.0 
0.104225 -0.0550195 0.0 
1 0 0.0 
0.437067 -0.115245 0.0 
0.0331784 -0.015048 0.0 
1.01725 -0.111244 0.0 
0.843963 -0.00883849 0.0 
0.802346 -0.352243 0.0 
5.50248e-08 -5.10211e-09 0.0 
-8.78847e-44 -7.10932e-44 0.0 
0 0 0.0 
0.00827185 0.000562889 0.0 
0.946313 0.00150598 0.0 
1.00246 0.152619 0.0 
1.009 0.00896628 0.0 
0.645268 -0.00936723 0.0 
0.0165252 0.00112803 0.0 
1.00732 0.000164787 0.0 
0.0172453 -0.000577598 0.0 
0.999954 -0.00093899 0.0 
0.0169902 -0.000690826 0.0 
1.00898 0.00100617 0.0 
1.04281 -0.0403622 0.0 
0 0 0.0 
0.00705981 0.000763801 0.0 
1.00848 0.000210968 0.0 
1.00051 0.000589067 0.0 
1.06249 0.136143 0.0 
0.0433888 -0.00129901 0.0 
1.01027 0.00144797 0.0 
1.68199e-05 1.69466e-06 0.0 
1.00072 0.00352274 0.0 
0.999669 0.000421774 0.0 
0 0 0.0 
0 0 0.0 
1e-307 1e-307 0.0 
0.00500576 0.000468118 0.0 
0.968816 -0.341676 0.0 
0.133267 0.0677069 0.0 
0.873028 -0.0446581 0.0 
0.868704 -0.262417 0.0 
1.01196 0.000691539 0.0 
0.201166 0.045759 0.0 
0.849099 0.331676 0.0 
0.888505 0.346061 0.0 
0.219065 0.00672576 0.0 
1.00886 0.000822762 0.0 
0.00276718 -0.000233876 0.0 
1.00562 -0.000658231 0.0 
1.0105 0.270826 0.0 
0.561344 -0.208212 0.0 
1.01315 -0.000402357 0.0 
0.522285 0.0189717 0.0 
0.806057 0.165273 0.0 
1.01155 -0.00214729 0.0 
0.842773 0.345707 0.0 
0.840931 0.322531 0.0 
0.846482 0.296894 0.0 
2.1233e-168 1.56072e-169 0.0 
0.706281 -0.000421394 0.0 
1.00001 -0.000535133 0.0 
0.881289 -0.0715521 0.0 
0.00152526 0.000230834 0.0 
1.00071 -0.000591679 0.0 
0.616214 -0.11691 0.0 
1.00506 0 0.0 
0.620967 -0.446732 0.0 
0.563929 0.0549877 0.0 
1.00864 0.00021091 0.0 
1 0 0.0 
0 0 0.0 
0.158324 -0.252142 0.0 
0.244534 0.0442584 0.0 
1.00969 0.00096052 0.0 
1.06248 -0.0563113 0.0 
0.997243 -0.00320166 0.0 
4.26248e-32 -6.70435e-33 0.0 
0 0 0.0 
0.434356 0.0523562 0.0 
0 0 0.0 
0 0 0.0 
1.00298 0 0.0 
-1.79548e-35 -8.05137e-37 0.0 
0.662218 0.00753357 0.0 
0.243115 0.238121 0.0 
0.841072 0.341683 0.0 
1.08908 -0.143329 0.0 
0.0359658 -0.0836168 0.0 
0.0541768 0.0100528 0.0 
0.35345 0.0905008 0.0 
0.88286 0.341499 0.0 
0.735592 0.302011 0.0 
1.01034 0.000892175 0.0 
0 0 0.0 
0.619804 0.0109189 0.0 
1.00055 0.00243781 0.0 
1.8825e-75 -1.59711e-76 0.0 
0.972952 0.193894 0.0 
0.594139 -0.0277513 0.0 
0.0569276 0.0119335 0.0 
0.00792608 0.000611741 0.0 
0.0753379 0.0155255 0.0 
0.859443 -0.402541 0.0 
0.226127 0.0238312 0.0 
1.00763 0.000165191 0.0 
0.00538611 0.000135756 0.0 
0.0610654 0.00535296 0.0 
0.952473 -0.0459144 0.0 
0.01209 0.000781998 0.0 
0 0 0.0 
0.678316 -0.367478 0.0 
1.00492 0.00113514 0.0 
0.00357026 -6.77271e-05 0.0 
0.593695 -0.14307 0.0 
1.7164e-71 -1.45619e-72 0.0 
0.00558623 -0.000574111 0.0 
0.72372 0.044248 0.0 
0.841439 0.023336 0.0 
0.0667352 0.0359479 0.0 
0.339344 -0.245006 0.0 
1.00053 0.00426261 0.0 
1.00867 0.00145951 0.0 
1.00601 -0.000426173 0.0 
0.999953 -0.000493643 0.0 
1.00325 0.00414894 0.0 
0.603921 0.00637251 0.0 
0.0288883 0.000180662 0.0 
-8.29922e-69 3.94632e-69 0.0 
0.1126 0.00191933 0.0 
0.311641 -0.262711 0.0 
0.0841022 0.020045 0.0 
0.0727454 -0.0082985 0.0 
1.00498 -0.00287494 0.0 
0.350786 0.0507739 0.0 
1.0143 0.115172 0.0 
0.470235 -0.0258556 0.0 
1.00835 -0.00150124 0.0 
-4.52389e-40 3.83598e-42 0.0 
0.0376552 -0.00867798 0.0 
1.01125 0.00166652 0.0 
0.00179161 -0.000447215 0.0 
7.61054e-08 -3.64703e-10 0.0 
1.01494 0.00127878 0.0 
0.0080089 8.42832e-05 0.0 
0.0704489 0.00604549 0.0 
0.284652 0.0627384 0.0 
0.323232 -0.202505 0.0 
0.194046 -0.0481526 0.0 
0.0254651 -0.0135458 0.0 
0.0171728 0.00108566 0.0 
0.302987 -0.0278988 0.0 
0.151101 -0.0106876 0.0 
0.00572918 0.000427947 0.0 
0.526784 0.0956952 0.0 
0.294151 0.114447 0.0 
0.982171 0.175364 0.0 
1.00659e-15 9.1061e-17 0.0 
-4.0541e-162 -1.14238e-163 0.0 
0.985024 -0.0308576 0.0 
0.571584 -0.0156443 0.0 
1.00561 0.00750425 0.0 
1.00726 -0.000289965 0.0 
0.509513 0.237306 0.0 
0.998839 -0.000142164 0.0 
0.00677502 -0.000693677 0.0 
0.217943 -0.0186556 0.0 
0.209278 0.00235615 0.0 
0.447526 0.00139509 0.0 
0.325155 0.110247 0.0 
0.8109 0.104878 0.0 
0.259834 0.0110259 0.0 
0 0 0.0 
1.01099 -0.00136168 0.0 
1.00735 0.000761849 0.0 
1.87483e-10 5.49942e-14 0.0 
0.0382254 -0.00504327 0.0 
1.00206 -0.0995375 0.0 
1.12572 0.0961705 0.0 
0 0 0.0 
-1.29285e-78 1.04903e-78 0.0 
1.00579 -0.000334993 0.0 
0.726811 -0.0936956 0.0 
0.0231787 -0.00469453 0.0 
2.31849e-31 3.49309e-32 0.0 
0.597374 -0.0166848 0.0 
1.00387 0.00268233 0.0 
0.0406703 -0.000240015 0.0 
1.00428 0.00694731 0.0 
0.28712 -0.0317366 0.0 
0.215307 0.216529 0.0 
0.90656 -0.391401 0.0 
0.00958508 0.000856418 0.0 
0.838663 -0.332199 0.0 
1.69709e-22 1.60261e-22 0.0 
0.119441 0.0114896 0.0 
8.89074e-27 3.52944e-28 0.0 
1.0065 -0.000363969 0.0 
1.01506 0.00248411 0.0 
0.727802 0.0573302 0.0 
1.10661e-154 1.43232e-154 0.0 
0.064349 -0.00781308 0.0 
1.40071e-17 5.91638e-18 0.0 
0 0 0.0 
0.71835 0.219304 0.0 
1.00736 0.000370689 0.0 
0.174093 0.0162655 0.0 
1.00916 0.000950863 0.0 
1.00712 -0.000883311 0.0 
0.0288394 0.00896023 0.0 
0.0303354 0.00146228 0.0 
0.823733 -0.109297 0.0 
0.906714 0.282217 0.0 
1.00951 0.00114391 0.0 
0.892527 -0.247335 0.0 
0.99099 -0.0215149 0.0 