<VTKFile type="UnstructuredGrid" version="0.1" byte_order="LittleEndian">
  <UnstructuredGrid>
    <Piece NumberOfPoints="12687" NumberOfCells="25214">
      <Points>
        <DataArray type = "Float64" NumberOfComponents="3" format="ascii">
0 0 0.0 
14 0 0.0 
14 8 0.0 
0 8 0.0 
4.16782 4.09801 0.0 
4.03924 3.96186 0.0 
4.11558 4.07765 0.0 
2.81624 6.10545 0.0 
4.09208 3.95602 0.0 
4.27592 4.05022 0.0 
4.01347 3.99897 0.0 
4.00438 3.99817 0.0 
4.03844 3.97703 0.0 
4.08727 4.02188 0.0 
12.5949 1.78564 0.0 
4.01396 4.08707 0.0 
4.54893 4.08036 0.0 
4.99858 3.99734 0.0 
4.02621 4.02656 0.0 
4.25007 4.10489 0.0 
4.08492 3.93693 0.0 
7.56898 0.640022 0.0 
10.9896 5.75146 0.0 
5.55931 4.16356 0.0 
4.97388 4.02614 0.0 
3.26352 4.45888 0.0 
5.4736 4.14551 0.0 
4.96284 4.02182 0.0 
4.36723 4.05555 0.0 
5.81763 4.18406 0.0 
4.2668 4.06337 0.0 
4.69873 3.98378 0.0 
4.98623 3.97507 0.0 
4.83379 3.99043 0.0 
4.09533 4.03459 0.0 
4.00922 3.99881 0.0 
5.1502 4.05721 0.0 
4.2041 4.03861 0.0 
4.01927 3.99345 0.0 
4.02807 4.0484 0.0 
4.11094 4.03801 0.0 
8.66366 1.19674 0.0 
4.39808 8 0.0 
4.17035 3.96621 0.0 
3.98196 3.98783 0.0 
9.23055 3.41873 0.0 
4.36023 4.05917 0.0 
4.01706 3.99618 0.0 
10.1656 3.98902 0.0 
11.594 4.9373 0.0 
4.06573 3.95915 0.0 
4.05595 3.97195 0.0 
4.0017 4.00679 0.0 
3.89803 4.50252 0.0 
4.02352 3.97115 0.0 
4.11636 4.07056 0.0 
4.72405 4.04309 0.0 
8.79179 0 0.0 
4.09545 4.05533 0.0 
4.01647 3.99236 0.0 
4.00942 4.01407 0.0 
4.03396 4.05254 0.0 
4.92091 3.99492 0.0 
7.88223 5.55852 0.0 
4.04032 3.98395 0.0 
4.54866 4.05989 0.0 
4.99619 3.99741 0.0 
4.64135 3.91301 0.0 
4.02656 4.02586 0.0 
3.92572 4.0215 0.0 
5.00785 4.00312 0.0 
10.8833 7.73481 0.0 
14 6.11123 0.0 
4.00811 4.01704 0.0 
4.0629 4.04093 0.0 
3.96293 3.99513 0.0 
4.04956 3.95606 0.0 
4.75868 3.41004 0.0 
4.00298 3.99277 0.0 
4.05465 4.0262 0.0 
3.99922 3.99464 0.0 
5.03684 4.01469 0.0 
4.89345 3.9939 0.0 
4.997 3.99867 0.0 
3.99487 4.0255 0.0 
4.81648 3.78376 0.0 
14 5.21618 0.0 
4.49737 4.12279 0.0 
3.94993 3.93619 0.0 
4.80013 4.01216 0.0 
4.0958 3.97029 0.0 
2.14809 1.04438 0.0 
3.51988 2.03916 0.0 
5.00991 4.10716 0.0 
7.74861 1.76701 0.0 
4.22917 3.98359 0.0 
4.03092 4.16377 0.0 
4.08979 4.04314 0.0 
4.35343 3.94951 0.0 
5.00914 4.01319 0.0 
3.05349 4.57182 0.0 
4.30459 4.02971 0.0 
4.66315 4.02775 0.0 
4.00213 4.00745 0.0 
4.56369 3.97726 0.0 
4.08373 4.05666 0.0 
5.00129 3.99352 0.0 
7.11829 1.95635 0.0 
4.27852 0 0.0 
5.04845 4.04311 0.0 
4.00296 4.0113 0.0 
4.93662 3.99563 0.0 
3.95799 3.98472 0.0 
4.13434 4.07811 0.0 
4.96023 4.00795 0.0 
10.5099 5.53717 0.0 
4.03921 4.05963 0.0 
5.10115 2.38731 0.0 
9.98008 1.71619 0.0 
4.35017 3.94589 0.0 
5.51345 3.96996 0.0 
4.09448 4.64728 0.0 
10.5887 1.69011 0.0 
10.0523 4.76598 0.0 
4.1741 4.07586 0.0 
10.919 6.03995 0.0 
4.03854 4.8114 0.0 
3.75062 1.29589 0.0 
4.40024 3.97183 0.0 
5.84533 4.97736 0.0 
4.23408 3.96781 0.0 
3.91267 2.38613 0.0 
4.02873 4.0411 0.0 
4.88146 4.04087 0.0 
4.63197 4.41855 0.0 
4.49136 4.08498 0.0 
5.14453 3.95488 0.0 
4.12124 3.98374 0.0 
4.35252 4.04916 0.0 
3.987 4.01082 0.0 
4.09948 4.05196 0.0 
3.57082 7.18501 0.0 
4.99458 4.03862 0.0 
4.05159 3.97485 0.0 
4.02244 4.02798 0.0 
4.19478 3.95782 0.0 
4.12635 4.07409 0.0 
0 1.4212 0.0 
4.25778 4.0794 0.0 
13.7863 7.10234 0.0 
4.18369 3.96682 0.0 
4.67532 4.04875 0.0 
4.04073 4.01397 0.0 
5.01331 3.98969 0.0 
4.46258 4.06547 0.0 
4.05601 3.94012 0.0 
5.05415 4.0144 0.0 
4.53319 4.06145 0.0 
4.12613 3.92733 0.0 
4.25128 4.07504 0.0 
4.36995 3.83504 0.0 
4.19206 3.91938 0.0 
5.81702 3.84848 0.0 
9.79733 4.60034 0.0 
4.09641 3.95124 0.0 
4.37608 4.07305 0.0 
4.25967 3.90771 0.0 
3.96293 4.03138 0.0 
4.16991 4.04935 0.0 
4.43337 3.97234 0.0 
4.23532 3.95103 0.0 
4.49083 4.06469 0.0 
3.99252 4.00665 0.0 
4.09439 4.04788 0.0 
4.17636 4.06982 0.0 
8.7128 5.22403 0.0 
4.06524 4.03936 0.0 
4.25214 3.96718 0.0 
4.99703 3.99372 0.0 
4.25262 4.15605 0.0 
3.99665 4.0541 0.0 
5.06886 4.12388 0.0 
4.19057 4.05281 0.0 
4.10081 3.94382 0.0 
4.05695 3.98888 0.0 
4.00486 3.99082 0.0 
10.3465 3.03282 0.0 
4.67543 4.07538 0.0 
8.28914 6.82388 0.0 
10.2405 6.57487 0.0 
5.00368 4.02219 0.0 
4.99899 4.00471 0.0 
3.9771 4.03148 0.0 
3.53594 7.72461 0.0 
5.38522 6.64659 0.0 
4.15753 4.10167 0.0 
4.01494 4.07546 0.0 
4.18309 4.12442 0.0 
3.96476 4.03852 0.0 
3.96822 4.02719 0.0 
3.97233 4.04194 0.0 
4.09916 3.93061 0.0 
4.83149 4.01036 0.0 
4.21059 3.92477 0.0 
4.00503 3.98619 0.0 
3.92251 4.00785 0.0 
4.2577 3.96706 0.0 
12.4842 4.22703 0.0 
4.93544 4.0125 0.0 
4.91395 3.9375 0.0 
4.06275 3.97233 0.0 
3.99729 4.00013 0.0 
4.41857 4.06867 0.0 
4.97847 3.99738 0.0 
4.02616 4.02156 0.0 
13.2576 0.511552 0.0 
4.00756 4.02287 0.0 
4.00612 4.04547 0.0 
5.0401 4.02083 0.0 
4.98371 4.01321 0.0 
4.02883 4.00252 0.0 
5.13784 4.02471 0.0 
4.8189 3.98952 0.0 
5.09547 3.97365 0.0 
7.2855 2.15198 0.0 
10.6098 6.02819 0.0 
4.00036 4.02872 0.0 
4.91758 4.14218 0.0 
3.99417 4.00943 0.0 
4.79659 3.99606 0.0 
9.70989 7.75915 0.0 
6.25285 4.0859 0.0 
4.02341 4.03456 0.0 
4.09863 4.06297 0.0 
4.52724 7.41561 0.0 
5.05919 4.01855 0.0 
2.15923 7.15628 0.0 
4.22906 3.92121 0.0 
5.00749 4.02107 0.0 
4.60701 3.95862 0.0 
4.50396 3.97537 0.0 
4.37377 3.94452 0.0 
4.12176 3.9459 0.0 
4.13732 3.96487 0.0 
4.47787 4.0964 0.0 
1.24078 0.550265 0.0 
9.10545 7.45594 0.0 
2.38032 0.204862 0.0 
3.94954 4.00697 0.0 
4.11851 4.05833 0.0 
4.48461 3.97444 0.0 
4.01517 4.03055 0.0 
4.22663 4.02121 0.0 
3.99882 3.99972 0.0 
7.15285 6.80318 0.0 
4.14337 4.03383 0.0 
5.18611 3.96784 0.0 
4.03203 3.93215 0.0 
3.99908 3.98836 0.0 
8.76112 4.31939 0.0 
4.37899 4.06189 0.0 
4.84256 3.95409 0.0 
5.82879 4.74509 0.0 
4.1766 6.89118 0.0 
4.21507 3.9482 0.0 
4.68365 4.04669 0.0 
4.97222 4.02124 0.0 
4.20649 4.07638 0.0 
4.05426 3.97127 0.0 
4.44307 4.06662 0.0 
6.65694 6.21936 0.0 
4.15658 4.11713 0.0 
4.08678 3.96894 0.0 
11.9473 3.59927 0.0 
5.1327 4.04445 0.0 
4.66485 4.06959 0.0 
7.40117 6.4215 0.0 
4.11186 3.97047 0.0 
4.01284 4.02548 0.0 
4.08259 3.94164 0.0 
11.2579 1.33715 0.0 
4.02072 3.98062 0.0 
3.9901 3.98452 0.0 
3.99401 4.0024 0.0 
9.58928 7.0038 0.0 
5.57929 3.91086 0.0 
4.36256 3.96919 0.0 
5.00546 4.00308 0.0 
2.06855 1.99665 0.0 
4.4711 3.97508 0.0 
1.10337 4.28908 0.0 
4.1797 4.07872 0.0 
1.68101 6.42455 0.0 
4.69267 3.98357 0.0 
3.98704 3.95215 0.0 
4.01129 4.04736 0.0 
3.80307 4.16264 0.0 
3.59386 3.60045 0.0 
13.2253 0 0.0 
10.1351 3.82958 0.0 
4.27731 4.03512 0.0 
3.88936 3.91157 0.0 
4.2489 4.09629 0.0 
5.06347 3.99507 0.0 
11.8791 5.84339 0.0 
12.0944 3.41717 0.0 
4.46864 4.02442 0.0 
5.08198 4.04957 0.0 
5.02947 4.00625 0.0 
5.91253 5.93852 0.0 
11.8207 3.39772 0.0 
4.00337 3.991 0.0 
4.40738 3.97186 0.0 
4.39783 3.98514 0.0 
4.70104 3.98439 0.0 
5.03761 3.99618 0.0 
13.4125 7.46568 0.0 
4.08711 3.98632 0.0 
3.99883 4.01382 0.0 
4.24965 4.06453 0.0 
4.1638 4.09247 0.0 
3.99833 4.00152 0.0 
4.94021 3.98478 0.0 
4.48242 3.97524 0.0 
4.0175 4.04099 0.0 
3.96435 3.9869 0.0 
4.13386 4.04638 0.0 
4.84142 3.97764 0.0 
4.57337 4.08421 0.0 
4.01644 4.04405 0.0 
4.86214 4.04389 0.0 
3.99752 4.02893 0.0 
4.01884 3.99521 0.0 
4.26259 4.0847 0.0 
3.98628 3.99582 0.0 
2.0182 6.32568 0.0 
7.87665 6.3337 0.0 
9.11076 5.69706 0.0 
4.01204 4.00974 0.0 
4.9921 3.96662 0.0 
4.70848 3.98512 0.0 
7.22714 5.39218 0.0 
4.11136 4.07979 0.0 
8.1554 7.24604 0.0 
4.08534 4.04497 0.0 
4.00774 3.99043 0.0 
4.32809 4.0729 0.0 
3.98163 4.03116 0.0 
4.0202 4.00153 0.0 
10.9195 4.90426 0.0 
4.01977 3.98829 0.0 
5.0218 3.98124 0.0 
4.1034 3.92291 0.0 
4.17688 3.91279 0.0 
4.0766 3.95386 0.0 
5.10311 4.0306 0.0 
10.5982 2.9016 0.0 
5.07095 2.11145 0.0 
3.93422 3.94134 0.0 
12.2501 4.23969 0.0 
4.24299 7.49605 0.0 
3.98027 4.05285 0.0 
9.07041 2.78834 0.0 
4.73475 3.98611 0.0 
4.04634 3.9688 0.0 
3.98817 4.01223 0.0 
5.09271 4.07101 0.0 
4.04077 3.99338 0.0 
13.6428 3.96277 0.0 
0.702195 3.07036 0.0 
4.58474 3.98012 0.0 
4.29545 4.07179 0.0 
4.00745 4.01155 0.0 
4.0118 3.9871 0.0 
3.97172 3.99094 0.0 
4.35765 4.09941 0.0 
4.86656 4.03583 0.0 
4.41652 3.97067 0.0 
4.09346 3.9531 0.0 
5.18793 4.05304 0.0 
4.97564 3.98442 0.0 
12.0872 2.99571 0.0 
12.6983 7.1386 0.0 
3.98111 4.00805 0.0 
4.21935 4.06596 0.0 
3.99352 3.97666 0.0 
4.17236 4.05939 0.0 
5.32526 4.02505 0.0 
4.67002 3.84867 0.0 
14 4.59679 0.0 
3.98468 3.9804 0.0 
4.27492 4.05293 0.0 
4.10308 3.95678 0.0 
4.27486 4.14447 0.0 
4.78953 3.9894 0.0 
4.58476 3.97957 0.0 
7.83095 0.988247 0.0 
4.30199 3.92176 0.0 
4.32952 4.07434 0.0 
3.98206 3.97395 0.0 
12.9901 3.16776 0.0 
4.21387 4.048 0.0 
4.73088 4.05305 0.0 
5.61462 8 0.0 
4.15888 3.90796 0.0 
4.0679 4.04248 0.0 
4.00375 4.03912 0.0 
9.34209 2.29275 0.0 
3.99121 4.03339 0.0 
3.99417 4.04189 0.0 
8.95723 4.02005 0.0 
4.98163 4.01749 0.0 
4.14414 4.06545 0.0 
4.23677 3.96698 0.0 
3.99997 3.99241 0.0 
4.80292 3.98877 0.0 
4.44631 3.9743 0.0 
11.624 6.91062 0.0 
4.87582 4.02343 0.0 
3.98918 4.03714 0.0 
4.51618 3.97535 0.0 
4.01059 4.0357 0.0 
4.06911 3.9687 0.0 
4.51743 3.9758 0.0 
4.09975 3.95651 0.0 
4.13306 4.06692 0.0 
4.00056 4.04248 0.0 
1.05155 0.371395 0.0 
5.35539 3.88763 0.0 
3.9896 4.00463 0.0 
4.55878 4.04322 0.0 
3.98613 3.98439 0.0 
4.08671 4.12702 0.0 
4.43214 4.07122 0.0 
4.34185 4.12908 0.0 
4.00273 4.04763 0.0 
4.02428 4.00868 0.0 
4.00243 3.99333 0.0 
2.46283 1.41429 0.0 
2.82936 5.83048 0.0 
5.00582 4.00454 0.0 
4.36863 4.11501 0.0 
5.01924 4.12854 0.0 
14 5.81288 0.0 
0.826483 0.532433 0.0 
4.13093 4.09563 0.0 
3.98643 3.99986 0.0 
4.95363 3.99603 0.0 
4.04777 4.0563 0.0 
3.99581 3.98523 0.0 
4.90778 3.98485 0.0 
0.970073 0 0.0 
3.98481 4.00073 0.0 
3.97761 4.0047 0.0 
4.84913 3.92783 0.0 
3.75856 4.22382 0.0 
3.00253 3.79019 0.0 
4.27768 4.09543 0.0 
4.11077 4.06077 0.0 
12.3274 4.11014 0.0 
5.04298 4.00764 0.0 
4.975 4.00301 0.0 
7.75957 3.85358 0.0 
1.37955 3.3979 0.0 
7.75776 3.97035 0.0 
5.02315 4.00602 0.0 
4.27982 4.05867 0.0 
14 6.70716 0.0 
4.06498 3.96487 0.0 
4.0405 4.03359 0.0 
4.0576 3.97622 0.0 
4.11333 3.95725 0.0 
4.13201 3.96772 0.0 
[...]
<PointData>
  <DataArray type = "Float64" Name="Vitesse" NumberOfComponents="3" format="ascii">
1 0 0.0 
1.00539 0 0.0 
1.00312 0 0.0 
1 0 0.0 
1.02972 0.172691 0.0 
0.876554 -0.252982 0.0 
0.929031 0.207682 0.0 
1.00317 0.00578256 0.0 
0.623233 -0.0822906 0.0 
0 0 0.0 
0 0 0.0 
2.15111e-99 -4.51696e-99 0.0 
0.101577 -0.025606 0.0 
-1.18935e-300 -1.21591e-301 0.0 
1.0071 0.000736209 0.0 
0.894836 0.24528 0.0 
0.271624 -0.013337 0.0 
0.0239374 0.00394202 0.0 
0.113741 0.0678351 0.0 
0.94824 0.0976405 0.0 
1.0517 -0.186184 0.0 
1.0086 0.000240182 0.0 
1.00776 -0.00142686 0.0 
0.972711 -0.0241417 0.0 
0.0663309 -0.0099925 0.0 
0.98715 0.0152016 0.0 
0.940438 -0.0303597 0.0 
0.0418924 -0.00616762 0.0 
0 0 0.0 
0.988633 -0.0169846 0.0 
-3.4643e-27 -2.23567e-28 0.0 
0.00973216 0.000787475 0.0 
0.22499 0.0159099 0.0 
0.00752272 0.000563824 0.0 
0 0 0.0 
0 0 0.0 
0.356596 -0.02994 0.0 
0 0 0.0 
0 0 0.0 
0.835825 0.359015 0.0 
0 0 0.0 
1.00842 0.000552346 0.0 
1.00784 0 0.0 
0.0417572 -0.00313655 0.0 
0.590231 -0.228777 0.0 
1.01044 0.000976045 0.0 
0 0 0.0 
0 0 0.0 
0.786128 0.000771928 0.0 
1.00787 -0.00213748 0.0 
0.710167 -0.135737 0.0 
0.199324 -0.0292791 0.0 
6.19796e-07 9.92717e-07 0.0 
0.99854 0.051644 0.0 
0.761009 -0.290046 0.0 
0.775377 0.168356 0.0 
0.00359341 -0.000183975 0.0 
1.00791 0 0.0 
0.425289 0.106004 0.0 
0 0 0.0 
0 1e-307 0.0 
0.867827 0.349078 0.0 
0.00317314 0.000141487 0.0 
1.01001 -0.00236083 0.0 
5.32788e-95 -1.19123e-95 0.0 
0.000242869 -7.78822e-06 0.0 
0.0186462 0.00201711 0.0 
0.793528 0.0126139 0.0 
0.0537119 0.0326244 0.0 
0.790339 0.0179501 0.0 
0.0249107 -0.00483491 0.0 
1.00613 -0.000157291 0.0 
1.00372 -0.00337485 0.0 
0.191363 0.156909 0.0 
0.147358 0.0410198 0.0 
0.670725 -0.0827927 0.0 
0.933922 -0.234333 0.0 
1.03506 -0.00456044 0.0 
0.0843814 -0.0919992 0.0 
0 0 0.0 
0.1919 -0.293994 0.0 
0.0619287 -0.00941186 0.0 
9.25516e-06 4.55971e-07 0.0 
0.00505008 0.000623221 0.0 
0.565427 0.287794 0.0 
1.05485 0.0101411 0.0 
1.00337 -0.00731059 0.0 
0.896582 -0.000745583 0.0 
0.859031 -0.146573 0.0 
0 0 0.0 
0.0290133 -0.00227324 0.0 
1.00146 -0.00169165 0.0 
1.00499 -0.00686028 0.0 
0.737161 -0.0499415 0.0 
1.00937 0.000848566 0.0 
0 0 0.0 
0.976868 0.167953 0.0 
2.03456e-71 5.38888e-72 0.0 
0.347387 0.00384769 0.0 
0.0362403 -0.0153331 0.0 
0.991222 0.0110884 0.0 
-1.75044e-270 -1.78953e-271 0.0 
0 0 0.0 
1.22216e-06 1.26199e-06 0.0 
0.0132525 0.000875699 0.0 
0.609895 0.162012 0.0 
0.0642486 0.0140301 0.0 
1.01002 0.000964532 0.0 
1.0063 0 0.0 
0.197361 -0.0263566 0.0 
0.11504 0.129357 0.0 
0.00491152 0.000335842 0.0 
0.719696 -0.113194 0.0 
0.851342 0.168115 0.0 
7.2086e-05 -6.96651e-06 0.0 
1.00833 -0.00159757 0.0 
0.911096 0.33755 0.0 
1.01486 -0.00278802 0.0 
1.00823 0.000826583 0.0 
0.412692 0.00289245 0.0 
0.462839 0.0128201 0.0 
1.02211 0.0428768 0.0 
1.00792 0.000751675 0.0 
1.00813 -0.0026183 0.0 
0.582159 0.0827104 0.0 
1.00742 -0.00120571 0.0 
1.01809 0.0316912 0.0 
1.00575 -0.00358464 0.0 
0.00108297 9.39345e-05 0.0 
1.01744 -0.00743703 0.0 
-3.77479e-21 -9.43753e-23 0.0 
1.00797 -0.009834 0.0 
0.731538 0.331741 0.0 
0.0940488 -0.0107745 0.0 
1.06981 0.00771774 0.0 
0.327086 -0.010098 0.0 
0.458597 0.0296384 0.0 
0 0 0.0 
1.553e-305 5.23996e-307 0.0 
0.436593 0.0790755 0.0 
0.222413 0.0523002 0.0 
1.00602 0.00241099 0.0 
0.145521 -0.0209243 0.0 
0.07106 -0.0198117 0.0 
0.334126 0.174763 0.0 
0.246243 -0.00480376 0.0 
0.802047 0.164408 0.0 
1 0 0.0 
0.373645 0.0277652 0.0 
1.00372 -0.00139074 0.0 
0.0211909 -0.0010564 0.0 
0.00406357 -0.00056473 0.0 
0 0 0.0 
0.105517 0.0188028 0.0 
3.969e-05 -2.37893e-06 0.0 
1.05622 -0.245312 0.0 
0.077256 -0.0065574 0.0 
0.00645307 -0.000184753 0.0 
1.05249 -0.132266 0.0 
0.263864 0.020988 0.0 
1.08438 -0.0356363 0.0 
1.01865 -0.0781656 0.0 
0.974024 0.012261 0.0 
1.00909 -0.0019276 0.0 
0.753991 -0.102243 0.0 
0.0925197 0.000104603 0.0 
1.03067 -0.0518544 0.0 
0.706812 0.0960439 0.0 
-1.59434e-238 -2.23104e-239 0.0 
0.00868028 0.000431445 0.0 
0.372196 -0.00627558 0.0 
0.0102358 -0.0003895 0.0 
0.283032 0.0458987 0.0 
0.0706956 0.0187948 0.0 
0.371682 0.0478745 0.0 
1.00994 -0.00201018 0.0 
3.76546e-07 6.46529e-08 0.0 
0.0158057 0.00100304 0.0 
0.0582012 0.00806235 0.0 
1.12149 0.117552 0.0 
0.777588 0.263708 0.0 
0.857811 -0.0508027 0.0 
0 0 0.0 
0.915628 -0.131147 0.0 
0 0 0.0 
0.110679 -0.0941338 0.0 
1.00937 0.00149541 0.0 
0.271583 -0.0194311 0.0 
1.00853 -0.00101151 0.0 
1.00725 -0.000962535 0.0 
0.0631695 -0.0176505 0.0 
0.0141254 -0.0071524 0.0 
0.661542 0.15512 0.0 
1.00564 0.000762234 0.0 
1.01161 0.000790052 0.0 
1.06557 0.189369 0.0 
0.878937 0.271044 0.0 
1.10687 0.168635 0.0 
0.724315 0.121452 0.0 
0.673459 0.0994066 0.0 
0.721802 0.156144 0.0 
1.06815 -0.167457 0.0 
-6.06008e-112 5.47826e-113 0.0 
0.933051 -0.0570113 0.0 
0.454175 -0.34414 0.0 
0.792601 -0.0105099 0.0 
0.0215343 0.000800365 0.0 
0.956158 -0.00602997 0.0 
0.00104561 -0.000105643 0.0 
0.565166 0.0216761 0.0 
0.112065 -0.0179905 0.0 
0.0982256 -0.144268 0.0 
0.0208606 -0.000958817 0.0 
0.00729389 0.000833722 0.0 
-8.51436e-52 -3.60589e-52 0.0 
1.00617 0.000355103 0.0 
0.47376 0.331488 0.0 
0.761488 0.327756 0.0 
0.0777436 -0.0140981 0.0 
0.0232215 -0.00475669 0.0 
1e-307 1e-307 0.0 
0.161818 -0.0101303 0.0 
0.00970866 0.000629914 0.0 
0.282267 0.0239508 0.0 
1.01003 0.00117295 0.0 
1.0076 -0.00125775 0.0 
0.608816 0.341101 0.0 
0.954783 -0.0476757 0.0 
0.285281 0.13537 0.0 
-8.91599e-30 -1.0262e-30 0.0 
1.00691 -0.000174451 0.0 
0.737208 -0.0106258 0.0 
0.610515 0.305509 0.0 
0.685553 0.168409 0.0 
1.00849 0.00120698 0.0 
0.0873888 -0.00952964 0.0 
1.00201 0.00171968 0.0 
0.946537 -0.0530188 0.0 
0.0598417 -0.0182331 0.0 
0.253288 0.00914127 0.0 
0.00478011 0.000562209 0.0 
0.430957 0.0041928 0.0 
0.775354 -0.0842594 0.0 
0.120539 -0.00323608 0.0 
0.523563 -0.00799319 0.0 
1.00049 -0.000466535 0.0 
1.00745 -0.000424768 0.0 
1.00202 -0.000375513 0.0 
0.719073 -0.0155939 0.0 
0.320277 0.0603789 0.0 
0.00579006 0.000672953 0.0 
0.603457 0.336665 0.0 
-6.8767e-275 -7.03028e-276 0.0 
0.0486336 -0.116915 0.0 
1.00971 -0.00108355 0.0 
0 0 0.0 
0.368286 0.0231429 0.0 
1.00984 -0.259412 0.0 
0.479645 -0.446385 0.0 
1.00961 -0.00293146 0.0 
1.02548e-80 -1.5634e-82 0.0 
0.376442 0.0148861 0.0 
1.01605 -0.0102894 0.0 
1.00846 0.00303265 0.0 
0.462732 -0.0137844 0.0 
-1.02882e-26 5.96438e-28 0.0 
0.0444438 -0.00694537 0.0 
0.447818 0.0510607 0.0 
0.259549 -0.047818 0.0 
2.77181e-05 -3.13529e-07 0.0 
1.01113 -0.00179045 0.0 
1.09443 0.190103 0.0 
0.116287 -0.0142971 0.0 
1.01006 0.000446253 0.0 
0.255884 -0.022925 0.0 
0.196706 -0.0150883 0.0 
1.00974 -0.00154978 0.0 
6.72262e-13 -6.45184e-14 0.0 
0.47563 0.290787 0.0 
1.01607 -0.18169 0.0 
1.00731 0.000465324 0.0 
0.262171 -0.0966624 0.0 
0.594928 -0.347394 0.0 
0.209119 -0.0794209 0.0 
1.00733 -0.000735396 0.0 
0.806399 0.0185582 0.0 
0.0229761 0.000272132 0.0 
0.0199501 -0.00645498 0.0 
1.00059 -0.00295174 0.0 
-5.43127e-24 -8.44185e-25 0.0 
0.99934 0.000762166 0.0 
0.638175 0.0892071 0.0 
1.00087 0.00232729 0.0 
0.0090359 0.000850549 0.0 
0.843706 -0.260997 0.0 
0.788676 0.341618 0.0 
0.934274 0.0485747 0.0 
0.981317 -0.0254396 0.0 
1.00606 0 0.0 
0.933692 0.00107186 0.0 
-1.93492e-274 -1.97813e-275 0.0 
0.899726 -0.0786399 0.0 
0.810663 0.0790218 0.0 
0.121293 0.0110292 0.0 
1.00699 -0.00154516 0.0 
1.01033 0.00104294 0.0 
-8.53034e-255 -8.72085e-256 0.0 
0.260545 -0.028919 0.0 
0.0532649 -0.00210694 0.0 
1.01368 -0.00164363 0.0 
1.00891 0.00171422 0.0 
0.209218 -0.18925 0.0 
0.0055341 0.000708984 0.0 
1.28577e-95 7.18369e-97 0.0 
0.00517682 0.000335527 0.0 
0.0922785 0.0102872 0.0 
1.00415 -0.000725245 0.0 
0 0 0.0 
0.31118 0.265025 0.0 
6.23387e-11 5.74255e-12 0.0 
0.983553 0.166495 0.0 
0.0447569 -0.0689506 0.0 
0.107436 0.00530129 0.0 
2.45362e-05 1.9903e-06 0.0 
0.767337 0.372226 0.0 
0.688631 -0.126166 0.0 
0 0 0.0 
0.13359 0.00609876 0.0 
0.338774 -0.0166375 0.0 
0.788958 0.366042 0.0 
0.102111 -0.0114734 0.0 
0.607111 0.315365 0.0 
0 0 0.0 
0.505415 0.0383022 0.0 
0.46033 -0.192806 0.0 
1.0013 0.0031184 0.0 
1.00929 -0.00155405 0.0 
1.00894 -0.00168997 0.0 
0 0 0.0 
0.307968 0.0213125 0.0 
-4.66454e-22 -4.0186e-23 0.0 
1.01092 -0.00317672 0.0 
0.972504 0.224425 0.0 
1.0083 -0.000648819 0.0 
0.0411467 0.00663036 0.0 
0 0 0.0 
0.0990627 -0.000740827 0.0 
0.646498 0.180771 0.0 
0 0 0.0 
1.00768 -0.00203704 0.0 
2.70553e-190 -1.29673e-190 0.0 
0.181002 0.0236925 0.0 
1.08638 -0.165228 0.0 
1.0737 -0.096638 0.0 
0.80164 -0.139968 0.0 
0.157029 -0.0163344 0.0 
1.00919 0.00138684 0.0 
1.01266 -0.00282364 0.0 
0.853194 -0.117759 0.0 
0.966209 -0.00705984 0.0 
1.00775 0.00124277 0.0 
0.759712 0.197825 0.0 
1.00985 0.00111405 0.0 
0.00421701 0.000633023 0.0 
0.500962 -0.113232 0.0 
0.433282 0.110616 0.0 
0.445695 -0.0382421 0.0 
0 0 0.0 
0.895031 -0.000482541 0.0 
0.999825 -0.000465652 0.0 
-1.53999e-50 -1.7549e-51 0.0 
0.094812 0.00551936 0.0 
-4.05301e-33 -3.02779e-33 0.0 
-1.85892e-51 1.10705e-51 0.0 
0.634708 -0.136601 0.0 
0.6627 0.0218036 0.0 
0.0556626 -0.00683393 0.0 
0.0248218 0.000499249 0.0 
0.71443 -0.0977743 0.0 
0.344199 -0.025806 0.0 
0.129453 0.00782749 0.0 
1.00749 0.00134484 0.0 
1.00511 -0.000836489 0.0 
0.50378 0.0092642 0.0 
0.0595761 0.00253491 0.0 
0.709245 -0.378527 0.0 
0.000595971 0.000101605 0.0 
0.274775 -0.00923326 0.0 
1.05643 0.00325486 0.0 
1.01323 -0.0087771 0.0 
0.657171 -0.286596 0.0 
0 0 0.0 
0.529097 -0.0576354 0.0 
1.12599 0.107334 0.0 
-1.65365e-15 -1.33613e-16 0.0 
-2.70747e-37 -2.08863e-38 0.0 
1.00868 0.000417755 0.0 
0.850914 -0.0229972 0.0 
0.132095 0.000384594 0.0 
0.716053 -0.26778 0.0 
1.00761 6.67315e-05 0.0 
1.8209e-198 6.20302e-200 0.0 
0.0807549 -0.00806839 0.0 
1.00944 0 0.0 
1.09456 -0.113128 0.0 
0.153232 0.0368287 0.0 
0.715989 0.337011 0.0 
1.00896 0.00103909 0.0 
0.647511 0.256206 0.0 
0.711669 0.270951 0.0 
0.735072 -0.000115508 0.0 
0.0358278 -0.00662869 0.0 
0.406736 0.0696953 0.0 
0.0164663 0.000193415 0.0 
0.275642 -0.347272 0.0 
0.00978291 0.000593298 0.0 
-9.53761e-18 -1.41214e-18 0.0 
1.00609 -0.000659938 0.0 
0.0053293 -0.000889949 0.0 
0.676621 0.241458 0.0 
0.01128 0.000498813 0.0 
0.708781 0.375429 0.0 
0.249088 -0.0386231 0.0 
0.00614661 2.7458e-05 0.0 
0.557692 -0.0641445 0.0 
0.540026 0.100119 0.0 
0.727819 0.308164 0.0 
1.00035 -0.000265559 0.0 
0.90408 0.0257117 0.0 
0.344781 -0.0249305 0.0 
-2.86737e-166 6.24346e-168 0.0 
0.60819 -0.292724 0.0 
1.02844 0.214797 0.0 
0.0729542 -0.00241393 0.0 
1.06204 0.0637818 0.0 
0.76218 0.305123 0.0 
0 0 0.0 
0.0847982 -0.108747 0.0 
1.00188 -0.00275406 0.0 
1.00249 0.00690899 0.0 
0.0209185 -0.00883204 0.0 
0.903536 0.037009 0.0 
0.884518 -0.0503296 0.0 
1.00422 -0.0039647 0.0 
1.0002 -0.000286296 0.0 
1.05733 0.217186 0.0 
0.423935 -0.124329 0.0 
0.00878695 0.000527599 0.0 
0.884108 0.320234 0.0 
0.579702 -0.434505 0.0 
0.0920835 0.00429067 0.0 
1.00031 0 0.0 
0.448255 -0.101035 0.0 
0.54069 -0.0345254 0.0 
0.647668 0.0208231 0.0 
0.953397 0.0446492 0.0 
0.987465 -0.00374056 0.0 
0.722127 0.0553023 0.0 
0.496337 0.106334 0.0 
0.897136 -0.00676482 0.0 
0.0664786 -0.00146149 0.0 
-6.23909e-29 7.70611e-30 0.0 
0.929269 0.00305231 0.0 
0.998951 -0.000724952 0.0 
0.704056 0.00151743 0.0 
0.0457577 -0.00320489 0.0 
0 0 0.0 
1.0035 -0.00218073 0.0 
0.473483 -0.0838194 0.0 
0.174487 0.0722314 0.0 
-1.48216e-53 4.13114e-54 0.0 
0.460988 -0.0421061 0.0 
0.0326035 -0.00280168 0.0 
1.0071 0.0012933 0.0 
0.843417 0.0140162 0.0 
0 0 0.0 
0.304965 0.0440378 0.0 
9.65297e-113 -2.16948e-113 0.0 
1.00007 0.000319362 0.0 
0.748794 0.277332 0.0 
0.189601 0.0402262 0.0 
0.00411543 -5.54962e-05 0.0 
0.232972 -0.0556501 0.0 
0.150298 0.0177992 0.0 
1.00779 0 0.0 
0.0164725 0.000507188 0.0 
0.935949 -0.0989257 0.0 
0.0331693 -0.0118117 0.0 
0.491673 -0.0487308 0.0 
0.769074 0.364516 0.0 
0.747191 0.0633264 0.0 
0.579343 -0.0614147 0.0 
0.0728367 -0.000338229 0.0 
0.86358 0.354118 0.0 
0.493066 -0.172146 0.0 
0.814588 0.356045 0.0 
1.01175 0.00929238 0.0 
0.315918 0.0748081 0.0 
0.943266 -0.334586 0.0 
0.017856 0.0398912 0.0 
0.746352 -0.0901787 0.0 
1e-307 1e-307 0.0 
0.0270669 0.00338923 0.0 
-2.77127e-16 1.90631e-17 0.0 
0.940442 0.125437 0.0 
1.04987 0.102912 0.0 
0 0 0.0 
1.0069 0.00259531 0.0 
5.2928e-78 -1.06549e-79 0.0 
-1.79008e-47 2.52174e-48 0.0 
0.415476 -0.00493134 0.0 
0.136033 0.00308159 0.0 
0.0460274 -0.00982631 0.0 
0.407058 -0.00332187 0.0 
0.810042 0.127149 0.0 
1.00484 -0.00179693 0.0 
0.0149277 -0.00719378 0.0 
1.01071 0.000712743 0.0 
0.455424 -0.047726 0.0 
0.0780316 -0.0101063 0.0 
0.781922 0.13532 0.0 
1.00838 0.0010807 0.0 
0.0253976 -0.00304201 0.0 
0.121332 -0.00704706 0.0 
-1.70739e-51 -7.23092e-52 0.0 
1.01725 -0.0143616 0.0 
0.800044 0.0731734 0.0 
0.00206246 -5.33472e-05 0.0 
0.271032 -0.0200382 0.0 
0.69764 -0.449014 0.0 
0.767846 0.0874641 0.0 
3.97289e-08 6.62387e-08 0.0 
0.0111039 -0.00066362 0.0 
1e-307 1e-307 0.0 
0.418594 0.0407436 0.0 
1.00895 -0.0156864 0.0 
0.77214 -0.290242 0.0 
0.138019 0.0074463 0.0 
0.00208685 -0.000378254 0.0 
1.00752 -0.000236579 0.0 
0.0141633 -0.000624851 0.0 
2.06288e-86 -1.94965e-87 0.0 
0.171619 0.0125587 0.0 
1.01742 -0.043903 0.0 
9.73047e-09 1.94428e-10 0.0 
1.01067 8.38699e-05 0.0 
1.01141 -0.00246877 0.0 
0.984227 -0.226955 0.0 
0.591093 0.0805753 0.0 
0.0431115 -0.0166748 0.0 
0.984851 -0.0293725 0.0 
0.0542917 -0.00589349 0.0 
0.0667443 -0.0141037 0.0 
0 0 0.0 
1.0043 -0.00121564 0.0 
0.929117 0.000691504 0.0 
1.25298e-67 -4.84558e-68 0.0 
0.951235 0.0620888 0.0 
0.497048 -0.35308 0.0 
0.86225 0.258491 0.0 
0 0 0.0 
0.011176 0.000269325 0.0 
1.00968 0.0017194 0.0 
-4.82176e-242 1.31692e-243 0.0 
0.892314 -0.301069 0.0 
0.108992 -0.0100275 0.0 
1.00546 -0.000860461 0.0 
0.43932 -0.0103291 0.0 
0.966252 0.305143 0.0 
0.321195 -0.021887 0.0 
-3.72505e-252 -3.80824e-253 0.0 
0 0 0.0 
1.07718 -0.17477 0.0 
0.439244 0.0245488 0.0 
0.50464 0.029949 0.0 
0.279788 -0.0323123 0.0 
1.01006 0.00129891 0.0 
-6.91765e-272 -7.07214e-273 0.0 
3.01315e-06 2.6095e-07 0.0 
0.00692403 0.00102465 0.0 
1.00045 0.00516975 0.0 
0.110505 -0.012087 0.0 
0.188039 -0.0275691 0.0 
6.43773e-263 5.65415e-264 0.0 
1.00961 0.00128883 0.0 
0 0 0.0 
0.068853 0.0139942 0.0 
1.01214 -0.294186 0.0 
-1.21738e-156 1.38315e-157 0.0 
0.323415 0.165623 0.0 
1.00649 -0.00145659 0.0 
1.00009 0.000617915 0.0 
2.58409e-12 7.05974e-13 0.0 
-8.15917e-180 9.27012e-181 0.0 
0.999522 -0.000238812 0.0 
0.164243 -0.0984386 0.0 
0.908835 0.0105417 0.0 
0.0487228 -0.0929226 0.0 
1.0034 -0.00365516 0.0 
0 0 0.0 
1.0071 0.256666 0.0 
1.41461e-11 -1.40648e-12 0.0 
0.827493 -0.120282 0.0 
1.00696 -0.000663147 0.0 
0.0479009 0.000385376 0.0 
1.00966 -0.00209262 0.0 
-3.29498e-281 -3.36857e-282 0.0 
1.00796 0.00080599 0.0 
0.609429 -0.464196 0.0 
0.197628 0.178613 0.0 
0.727378 0.191265 0.0 
1.00585 0 0.0 
0.678276 0.199161 0.0 
0.170842 0.0011422 0.0 
0.500893 0.152001 0.0 
0.0280217 -0.00239625 0.0 
0 0 0.0 
0.0115326 0.000646481 0.0 
1.00886 -0.000801436 0.0 
1.03631 -0.272807 0.0 
0.0132734 -0.000833085 0.0 
1.07872 -0.202601 0.0 
-7.37976e-304 -1.46698e-304 0.0 
1.04227 0.072973 0.0 
0.321247 -0.0186457 0.0 
-1.08061e-54 1.69924e-54 0.0 
-1.03852e-48 -4.3982e-49 0.0 
0.0556949 0.00373795 0.0 
-3.77158e-84 -1.24581e-85 0.0 
0.181004 0.00363896 0.0 
0.591416 -0.0729811 0.0 
0.93412 0.115568 0.0 
0.835618 -0.0327265 0.0 
1.09283 -0.0961678 0.0 
1.00768 -0.045102 0.0 
0.0132634 0.000402642 0.0 
1.00954 -0.00191423 0.0 
1.00011 0.000890771 0.0 
0.0897918 0.0148692 0.0 
-8.19127e-17 7.03099e-19 0.0 
0.0124962 0.000834192 0.0 
0.199339 0.00357508 0.0 
-9.71494e-35 2.82221e-35 0.0 
1.0148 -0.206377 0.0 
0 0 0.0 
0.0896993 -0.0915625 0.0 
0.291088 -0.0131625 0.0 
0.943594 -0.359598 0.0 
0.0115328 0.000758574 0.0 
0.692853 -0.28949 0.0 
0 0 0.0 
1.01066 -0.00202221 0.0 
0.0486099 -0.00347028 0.0 
0 0 0.0 
0.0631958 0.0101214 0.0 
0.686583 -0.0465309 0.0 
1.00975 -0.00212036 0.0 
0.574562 0.222805 0.0 
0.650307 0.276736 0.0 
0.298715 -0.0193146 0.0 
0.736623 -0.0348298 0.0 
0.920755 -0.304762 0.0 
1.00003 0.000515372 0.0 
0.74553 -0.42838 0.0 
0.951612 0.283689 0.0 
0.996517 -0.00306028 0.0 
0.0270578 -0.00398449 0.0 
1.00709 -0.00111853 0.0 
0.117969 -0.0215394 0.0 
0.819337 -0.244807 0.0 
0.905451 0.331989 0.0 
0.161119 0.167857 0.0 
0 0 0.0 
1 0 0.0 
0.451257 -0.00473582 0.0 
0.0332422 -0.0150262 0.0 
1.01731 -0.111208 0.0 
1.00994 -0.00212356 0.0 
0.802212 -0.35221 0.0 
1.00806 0.000236452 0.0 
1.0075 0.000695778 0.0 
0 0 0.0 
0 0 0.0 
2.43016e-06 -1.97476e-07 0.0 
0.454585 0.160284 0.0 
1.00902 0.00895883 0.0 
0.645363 -0.00937939 0.0 
1.00846 -0.00147938 0.0 
1.00684 0.000116965 0.0 
1.00631 -0.000664895 0.0 
1.00616 0.153024 0.0 
0.787912 0.218135 0.0 
0.901025 0.251953 0.0 
0.00936939 0.000653722 0.0 
1.00782 0.000782924 0.0 
1.00997 0.161898 0.0 
0 0 0.0 
1.01058 -0.00267735 0.0 
1.00829 0.000272789 0.0 
0.124559 0.0176112 0.0 
1.00051 0.0005886 0.0 
0.00203667 -0.000375906 0.0 
0.682542 -0.107222 0.0 
1.0102 0.00163786 0.0 
0.01826 -0.00129777 0.0 
0.943028 0.155369 0.0 
0.034537 0.00160876 0.0 
0.784377 -0.230266 0.0 
0.0170857 0.000476458 0.0 
0 0 0.0 
0.817999 0.364122 0.0 
0.968714 -0.341644 0.0 
0.0379902 -0.0149664 0.0 
-5.46957e-24 -8.48817e-25 0.0 
0.872048 -0.0451246 0.0 
0.169171 0.106431 0.0 
-1.05514e-269 -1.0787e-270 0.0 
0.849106 0.331743 0.0 
1.0091 0.000480383 0.0 
1.00034 -0.000525355 0.0 
1.00811 0.00103735 0.0 
1.09056 -0.0555384 0.0 
0.0494454 -0.00519079 0.0 
1.01071 0.270779 0.0 
0.000561932 1.9654e-05 0.0 
0.561173 -0.208256 0.0 
0.618242 0.02747 0.0 
0.175965 -0.0172084 0.0 
0.90254 0.042217 0.0 
0.806028 0.165308 0.0 
1.01152 -0.00210697 0.0 
0.842943 0.345735 0.0 
-2.82285e-21 3.33404e-23 0.0 
0.841057 0.322606 0.0 
0.846499 0.296968 0.0 
6.7889e-08 4.55933e-09 0.0 
1e-307 1e-307 0.0 
1.00001 -0.000532829 0.0 
1.00702 -0.00180357 0.0 
0.881305 -0.0714379 0.0 
4.08888e-05 2.0575e-06 0.0 
0.892083 -0.0282558 0.0 
0.61606 -0.116913 0.0 
1.00374 0 0.0 
0.257761 -0.0463664 0.0 
0.564069 0.0550249 0.0 
1.00934 0.00244985 0.0 
0.994383 0.0146851 0.0 
1.00778 0.000897324 0.0 
0.157551 -0.251616 0.0 
1.00849 -0.00114758 0.0 
0.000869783 6.07912e-05 0.0 
0.00703388 -0.000338626 0.0 
1.00968 -0.00763692 0.0 
-1.60518e-14 1.3281e-15 0.0 
0 0 0.0 
0.183956 0.126276 0.0 
0.243754 0.0431986 0.0 
0 0 0.0 
0.4789 -0.159663 0.0 
0.00462613 0.000224214 0.0 
0.662387 0.00752697 0.0 
0.0237769 0.00157875 0.0 
0.841072 0.341675 0.0 
3.80456e-05 5.98595e-06 0.0 
0.798966 -0.0356884 0.0 
0.922463 0.148049 0.0 
0.353592 0.0905553 0.0 
3.32312e-203 5.1888e-204 0.0 
0.735412 0.301979 0.0 
1.00931 -0.00194522 0.0 
-1.33227e-30 -3.19783e-31 0.0 
0.619933 0.0109179 0.0 
1.00055 0.00243621 0.0 
1.00544 0.00605888 0.0 
-1.23177e-43 -9.87607e-45 0.0 
0.594233 -0.0277581 0.0 
0.86609 0.188028 0.0 
0.010471 0.000536058 0.0 
1.0071 -0.00126554 0.0 
0.075333 0.015564 0.0 
0.859304 -0.402526 0.0 
0.0809457 -0.177363 0.0 
1.00713 0.000189679 0.0 
0.8829 0.341627 0.0 
0 0 0.0 
0.00786898 0.000821507 0.0 
9.12688e-05 -9.41287e-06 0.0 
0.952256 -0.0460306 0.0 
0.945391 0.181543 0.0 
1.00253 -0.00412193 0.0 
0.6779 -0.367154 0.0 
1.00491 0.00114094 0.0 
0.142694 -0.0149919 0.0 
0.593533 -0.14308 0.0 
0.0158537 0.00115269 0.0 
3.54553e-107 1.98089e-108 0.0 
0.999552 0.00105934 0.0 
0.111921 0.0361363 0.0 
0.841234 0.0233601 0.0 
1.00829 0.0016999 0.0 
0.839708 -0.0168718 0.0 
1 0.000211369 0.0 
1.00053 0.00426205 0.0 
0.339476 -0.244074 0.0 
0.00564649 0.000410186 0.0 
0.999954 -0.000492968 0.0 
0.219702 -0.041899 0.0 
0.621177 0.370661 0.0 
0.119795 0.109535 0.0 
1.01113 -0.00289568 0.0 
0.112733 0.00180131 0.0 
0.31128 -0.262743 0.0 
0.0818007 0.00296873 0.0 
0.00325103 -0.000390818 0.0 
1.00498 -0.00286712 0.0 
0.920464 -0.0847697 0.0 
1.00393 -0.00233667 0.0 
0.470229 -0.0258269 0.0 
1.00699 -0.00309293 0.0 
0.697472 0.0622514 0.0 
0.0377395 -0.00866204 0.0 
0.0175262 0.00113831 0.0 
1.05227 0.00112405 0.0 
0.0156725 0.000673235 0.0 
0.00641679 -0.000303692 0.0 
1.3793e-11 5.37373e-13 0.0 
0.0704533 0.0060259 0.0 