<VTKFile type="UnstructuredGrid" version="0.1" byte_order="LittleEndian">
  <UnstructuredGrid>
    <Piece NumberOfPoints="12710" NumberOfCells="25260">
      <Points>
        <DataArray type = "Float64" NumberOfComponents="3" format="ascii">
0 0 0.0 
14 0 0.0 
14 8 0.0 
0 8 0.0 
4.16782 4.09801 0.0 
4.75868 3.41004 0.0 
4.04441 3.97452 0.0 
4.84257 3.95409 0.0 
4.09208 3.95602 0.0 
4.27592 4.05022 0.0 
4.01347 3.99897 0.0 
4.02352 3.97115 0.0 
4.56363 3.97731 0.0 
4.00811 4.01704 0.0 
12.5949 1.78564 0.0 
4.01396 4.08707 0.0 
4.42675 3.9929 0.0 
5.10115 2.38731 0.0 
4.08534 4.04497 0.0 
4.25007 4.10489 0.0 
4.08492 3.93693 0.0 
4.18369 3.96682 0.0 
4.39836 8 0.0 
4.97365 4.02617 0.0 
4.0017 4.00679 0.0 
2.14809 1.04438 0.0 
3.94954 4.00697 0.0 
4.96284 4.02182 0.0 
4.36723 4.05555 0.0 
5.00914 4.01319 0.0 
7.74861 1.76701 0.0 
4.0118 3.9871 0.0 
9.98008 1.71619 0.0 
4.095 4.64772 0.0 
4.09533 4.03459 0.0 
4.00922 3.99881 0.0 
4.20498 4.03857 0.0 
4.66313 4.02775 0.0 
4.01927 3.99345 0.0 
4.02807 4.0484 0.0 
4.11094 4.03801 0.0 
3.94993 3.93619 0.0 
4.09545 4.05533 0.0 
4.06524 4.03936 0.0 
3.98196 3.98783 0.0 
4.02616 4.02156 0.0 
4.36023 4.05917 0.0 
4.01706 3.99618 0.0 
7.11829 1.95635 0.0 
11.594 4.9373 0.0 
3.57083 7.18501 0.0 
10.3465 3.03273 0.0 
4.1638 4.09247 0.0 
4.19478 3.95782 0.0 
10.5099 5.53717 0.0 
4.64138 3.913 0.0 
10.5887 1.69011 0.0 
4.25967 3.90771 0.0 
4.35252 4.04916 0.0 
4.01647 3.99236 0.0 
4.00942 4.01407 0.0 
4.03396 4.05254 0.0 
4.03128 4.16392 0.0 
4.04014 4.03106 0.0 
10.919 6.03995 0.0 
4.09948 4.05196 0.0 
3.99487 4.0255 0.0 
4.81647 3.78376 0.0 
4.95722 4.00858 0.0 
4.41846 4.06867 0.0 
5.00785 4.00312 0.0 
10.8833 7.73481 0.0 
14 6.11123 0.0 
4.33647 4.06865 0.0 
3.536 7.72461 0.0 
3.96293 3.99513 0.0 
4.04956 3.95606 0.0 
4.05472 4.02616 0.0 
5.1861 3.96784 0.0 
4.94017 3.98478 0.0 
3.99922 3.99464 0.0 
5.03684 4.01469 0.0 
4.32952 4.07434 0.0 
4.35758 4.09942 0.0 
4.00213 4.00745 0.0 
5.0096 3.99602 0.0 
14 5.21618 0.0 
4.46266 4.06548 0.0 
12.0944 3.41712 0.0 
4.80013 4.01216 0.0 
12.2501 4.23969 0.0 
5.14452 3.95488 0.0 
3.95799 3.98472 0.0 
5.00991 4.10716 0.0 
4.09863 4.06297 0.0 
4.22917 3.98359 0.0 
3.987 4.01082 0.0 
4.04777 4.0563 0.0 
4.35343 3.94951 0.0 
4.20585 4.07614 0.0 
3.05349 4.57182 0.0 
10.0523 4.76599 0.0 
4.99702 3.99372 0.0 
13.2576 0.511552 0.0 
4.57341 4.08421 0.0 
4.08373 4.05666 0.0 
5.00129 3.99352 0.0 
4.43321 3.97223 0.0 
4.27852 0 0.0 
5.04845 4.04311 0.0 
8.7128 5.22403 0.0 
4.25128 4.07504 0.0 
4.86639 4.03585 0.0 
4.13434 4.07811 0.0 
4.44322 4.06665 0.0 
4.03921 4.05963 0.0 
4.36863 4.11501 0.0 
8.28914 6.82388 0.0 
4.35017 3.94589 0.0 
5.51345 3.96996 0.0 
10.2405 6.57487 0.0 
4.05637 3.94 0.0 
4.91758 4.14218 0.0 
4.1741 4.07586 0.0 
5.38522 6.64659 0.0 
4.25275 4.1561 0.0 
3.75062 1.29589 0.0 
4.25218 3.96717 0.0 
4.04074 4.01398 0.0 
4.75935 3.99585 0.0 
3.91267 2.38613 0.0 
4.02873 4.0411 0.0 
4.88146 4.04087 0.0 
3.99729 4.00013 0.0 
4.49136 4.08498 0.0 
4.27279 3.96844 0.0 
4.12124 3.98374 0.0 
4.36996 3.83504 0.0 
7.2855 2.15198 0.0 
4.24965 4.06454 0.0 
7.40117 6.4215 0.0 
4.99458 4.03862 0.0 
9.79734 4.60037 0.0 
4.02244 4.02798 0.0 
7.75776 3.97035 0.0 
4.12635 4.07409 0.0 
0 1.4212 0.0 
4.25778 4.0794 0.0 
4.83149 4.01036 0.0 
9.58928 7.0038 0.0 
5.33529 4.11109 0.0 
11.8791 5.84339 0.0 
5.01331 3.98969 0.0 
4.91396 3.9375 0.0 
4.52304 4.06208 0.0 
5.05415 4.0144 0.0 
4.00503 3.98619 0.0 
4.12613 3.92733 0.0 
3.99417 4.00943 0.0 
10.9195 4.90426 0.0 
4.19206 3.91938 0.0 
5.81702 3.84848 0.0 
10.6098 6.02819 0.0 
4.09641 3.95124 0.0 
4.67546 4.07538 0.0 
4.99897 4.00473 0.0 
3.96293 4.03138 0.0 
4.16991 4.04935 0.0 
12.0872 2.99566 0.0 
4.23532 3.95103 0.0 
4.01498 4.07549 0.0 
3.99252 4.00665 0.0 
4.17686 4.06982 0.0 
4.90724 3.99307 0.0 
4.09917 3.93061 0.0 
4.46492 4.02439 0.0 
8.95725 4.02005 0.0 
4.06978 3.94498 0.0 
10.5983 2.90142 0.0 
3.99665 4.0541 0.0 
5.06886 4.12388 0.0 
4.19057 4.05281 0.0 
4.10081 3.94382 0.0 
4.05695 3.98888 0.0 
8.75497 3.1867 0.0 
11.2579 1.33715 0.0 
4.0775 5.77903 0.0 
4.50387 3.97541 0.0 
5.00368 4.02219 0.0 
3.96435 3.9869 0.0 
3.9771 4.03148 0.0 
4.94807 3.99592 0.0 
4.14412 4.06545 0.0 
4.15753 4.10167 0.0 
4.09347 3.9531 0.0 
4.18309 4.12442 0.0 
3.96476 4.03852 0.0 
3.96822 4.02719 0.0 
3.97233 4.04194 0.0 
4.22637 4.02122 0.0 
4.02883 4.00252 0.0 
4.21059 3.92477 0.0 
4.02072 3.98062 0.0 
3.92251 4.00785 0.0 
5.13784 4.02471 0.0 
12.4842 4.22703 0.0 
5.09543 3.97365 0.0 
3.99401 4.0024 0.0 
4.00036 4.02872 0.0 
13.6428 3.96277 0.0 
4.86213 4.04389 0.0 
5.00749 4.02107 0.0 
2.06855 1.99665 0.0 
4.00128 4.00518 0.0 
4.00756 4.02287 0.0 
4.00612 4.04547 0.0 
5.0401 4.02083 0.0 
4.98371 4.01321 0.0 
1.10337 4.28908 0.0 
1.68101 6.42455 0.0 
6.65694 6.21936 0.0 
3.98704 3.95215 0.0 
4.01284 4.02548 0.0 
4.01434 4.02098 0.0 
9.11076 5.69706 0.0 
4.42563 4.11458 0.0 
7.22714 5.39218 0.0 
9.70989 7.75915 0.0 
6.25285 4.0859 0.0 
4.02341 4.03456 0.0 
5.57926 3.91085 0.0 
4.52724 7.41561 0.0 
5.05919 4.01855 0.0 
2.15923 7.15628 0.0 
4.22906 3.92121 0.0 
4.05426 3.97127 0.0 
4.60701 3.95862 0.0 
4.0202 4.00153 0.0 
4.37377 3.94452 0.0 
4.12176 3.9459 0.0 
4.13732 3.96487 0.0 
5.03761 3.99618 0.0 
1.24078 0.550265 0.0 
9.10545 7.45594 0.0 
2.38032 0.204862 0.0 
4.01977 3.98829 0.0 
4.11851 4.05833 0.0 
4.15664 4.11715 0.0 
4.01517 4.03055 0.0 
5.91253 5.93852 0.0 
3.99882 3.99972 0.0 
7.15285 6.80318 0.0 
4.14337 4.03383 0.0 
4.36262 3.9692 0.0 
4.03203 3.93215 0.0 
3.99908 3.98836 0.0 
8.76112 4.31939 0.0 
4.17153 3.96752 0.0 
4.40672 3.9727 0.0 
5.82879 4.74509 0.0 
4.1766 6.89118 0.0 
4.21507 3.9482 0.0 
5.00546 4.00308 0.0 
4.97222 4.02124 0.0 
4.11138 4.07979 0.0 
4.19735 4.0441 0.0 
2.0182 6.32568 0.0 
7.87665 6.3337 0.0 
4.00102 4.0065 0.0 
4.08678 3.96894 0.0 
11.9473 3.59927 0.0 
5.1327 4.04445 0.0 
4.00337 3.991 0.0 
4.04094 3.97464 0.0 
4.07506 3.97691 0.0 
4.08279 3.94163 0.0 
4.0679 4.04248 0.0 
4.27716 4.03511 0.0 
0.702195 3.07036 0.0 
3.9901 3.98452 0.0 
3.80316 4.16273 0.0 
4.84914 3.92783 0.0 
3.88939 3.91154 0.0 
11.8207 3.3976 0.0 
4.01128 4.04737 0.0 
4.24302 7.49605 0.0 
14 5.81288 0.0 
4.1797 4.07872 0.0 
5.32526 4.02505 0.0 
4.20476 4.0638 0.0 
5.00582 4.00454 0.0 
0.74913 1.54255 0.0 
4.57596 3.97753 0.0 
3.59386 3.60045 0.0 
13.2253 0 0.0 
10.1351 3.82958 0.0 
3.99833 4.00152 0.0 
4.2489 4.09629 0.0 
5.06347 3.99507 0.0 
9.34209 2.29275 0.0 
4.9754 4.00629 0.0 
4.25683 3.96772 0.0 
5.08198 4.04957 0.0 
5.02947 4.00625 0.0 
4.01644 4.04405 0.0 
4.07476 3.97138 0.0 
4.61775 4.08166 0.0 
4.8029 3.98874 0.0 
4.11559 4.05227 0.0 
7.83095 0.988247 0.0 
13.4125 7.46568 0.0 
4.08711 3.98632 0.0 
3.99883 4.01382 0.0 
7.75957 3.85358 0.0 
4.00745 4.01155 0.0 
4.26214 4.08456 0.0 
4.35306 4.07727 0.0 
3.97172 3.99094 0.0 
4.0175 4.04099 0.0 
1.37955 3.3979 0.0 
4.13386 4.04638 0.0 
4.84142 3.97764 0.0 
4.10348 3.92287 0.0 
4.76516 4.04123 0.0 
4.1333 3.95914 0.0 
3.99752 4.02893 0.0 
4.01884 3.99521 0.0 
4.98163 4.01749 0.0 
3.98628 3.99582 0.0 
5.04853 4.00696 0.0 
4.03227 4.0069 0.0 
4.04634 3.9688 0.0 
4.01204 4.00974 0.0 
4.9921 3.96662 0.0 
4.57743 4.05842 0.0 
12.6983 7.1386 0.0 
5.09271 4.07101 0.0 
8.1554 7.24604 0.0 
4.41654 3.97072 0.0 
4.00774 3.99043 0.0 
4.51754 3.976 0.0 
3.98163 4.03116 0.0 
4.96548 3.999 0.0 
14 4.59679 0.0 
5.0218 3.98124 0.0 
11.624 6.91062 0.0 
4.17688 3.91279 0.0 
4.0766 3.95386 0.0 
5.10311 4.0306 0.0 
4.27489 4.14448 0.0 
5.07095 2.11145 0.0 
3.93422 3.94134 0.0 
4.90776 3.98485 0.0 
4.03018 3.98036 0.0 
3.98027 4.05285 0.0 
3.91459 2.843 0.0 
4.29545 4.07179 0.0 
4.04066 3.98877 0.0 
3.98817 4.01223 0.0 
3.83982 4.09115 0.0 
4.04077 3.99338 0.0 
4.15888 3.90796 0.0 
4.51432 4.02089 0.0 
4.93518 3.9958 0.0 
2.82936 5.83048 0.0 
5.01924 4.12854 0.0 
0.826483 0.532433 0.0 
4.03228 4.00962 0.0 
4.72893 4.04248 0.0 
4.14279 3.96673 0.0 
4.10086 4.04941 0.0 
4.23677 3.96698 0.0 
5.18793 4.05304 0.0 
4.97564 3.98442 0.0 
4.34185 4.12909 0.0 
5.61457 8 0.0 
3.98111 4.00805 0.0 
4.66911 3.98309 0.0 
3.99352 3.97666 0.0 
4.00243 3.99333 0.0 
4.60451 4.04316 0.0 
4.67002 3.84867 0.0 
4.15917 4.06546 0.0 
3.98468 3.9804 0.0 
4.27492 4.05293 0.0 
4.10308 3.95678 0.0 
4.30199 3.92175 0.0 
4.73107 4.05303 0.0 
13.2978 1.9175 0.0 
3.89363 3.87966 0.0 
4.89659 4.0196 0.0 
4.45765 3.97344 0.0 
3.98206 3.97395 0.0 
12.9901 3.16776 0.0 
0.431926 7.09953 0.0 
4.73333 4.02414 0.0 
4.73834 3.98686 0.0 
4.06911 3.9687 0.0 
4.08719 4.12722 0.0 
4.00375 4.03912 0.0 
3.75868 4.22393 0.0 
3.99121 4.03339 0.0 
3.99417 4.04189 0.0 
4.25442 3.92674 0.0 
4.43214 4.07122 0.0 
4.12978 3.97024 0.0 
12.1822 3.59673 0.0 
3.99997 3.99241 0.0 
4.3634 3.97003 0.0 
4.00631 3.98969 0.0 
4.10305 4.05025 0.0 
4.47328 4.0468 0.0 
3.98918 4.03714 0.0 
4.73936 3.98652 0.0 
4.01059 4.0357 0.0 
9.65921 2.8639 0.0 
3.94002 3.95413 0.0 
4.09975 3.95651 0.0 
4.13306 4.06692 0.0 
4.00056 4.04248 0.0 
1.05155 0.371395 0.0 
5.35539 3.88763 0.0 
3.9896 4.00463 0.0 
8.79596 2.78106 0.0 
3.98613 3.98439 0.0 
4.95367 3.99605 0.0 
5.00565 3.99954 0.0 
4.1514 3.97477 0.0 
4.00273 4.04763 0.0 
4.02428 4.00868 0.0 
3.00253 3.79019 0.0 
2.46283 1.41429 0.0 
13.2243 6.58094 0.0 
5.02315 4.00602 0.0 
4.02159 4.02354 0.0 
3.03817 4.34441 0.0 
4.92708 3.99565 0.0 
4.13093 4.09563 0.0 
3.98643 3.99986 0.0 
6.49943 1.9325 0.0 
4.00548 4.01364 0.0 
3.99581 3.98523 0.0 
11.1695 2.59204 0.0 
0.970073 0 0.0 
3.98481 4.00073 0.0 
3.97761 4.0047 0.0 
4.02085 4.01707 0.0 
4.17131 4.08972 0.0 
4.27897 4.09513 0.0 
4.05751 3.95073 0.0 
4.11077 4.06077 0.0 
12.3274 4.11014 0.0 
5.04298 4.00764 0.0 
4.21685 4.09867 0.0 
4.10761 4.0532 0.0 
4.4201 3.97219 0.0 
4.27322 4.05818 0.0 
4.32869 4.03916 0.0 
4.27982 4.05867 0.0 
14 6.70716 0.0 
4.06498 3.96487 0.0 
4.9977 7.04729 0.0 
4.0576 3.97622 0.0 
4.11333 3.95725 0.0 
4.08433 4.05007 0.0 
4.83902 4.04718 0.0 
3.41272 0.490598 0.0 
4.07076 4.03121 0.0 
12.4261 6.96803 0.0 
5.63097 4.57927 0.0 
4.53202 4.06119 0.0 
3.99705 4.04765 0.0 
12.0472 6.07402 0.0 
3.96208 4.17084 0.0 
[...]
<PointData>
  <DataArray type = "Float64" Name="Vitesse" NumberOfComponents="3" format="ascii">
1 0 0.0 
1.0056 0 0.0 
1.00344 0 0.0 
1 0 0.0 
1.02984 0.172792 0.0 
1.03504 -0.00458602 0.0 
0.182907 -0.0313502 0.0 
0.376523 0.0148783 0.0 
0.623191 -0.0822812 0.0 
0 0 0.0 
0 0 0.0 
0.76099 -0.290035 0.0 
0.0134798 0.000675938 0.0 
0.191349 0.156902 0.0 
1.00714 0.000637085 0.0 
0.894815 0.24534 0.0 
3.98317e-76 3.30935e-77 0.0 
1.01487 -0.00280037 0.0 
0.0411271 0.0066265 0.0 
0.948122 0.0974123 0.0 
1.05172 -0.186187 0.0 
0.0211811 -0.00105207 0.0 
1.00784 0 0.0 
0.0662707 -0.00995906 0.0 
9.97745e-08 1.59813e-07 0.0 
1.00146 -0.00169203 0.0 
0.719058 -0.0155806 0.0 
0.041848 -0.00615725 0.0 
0 0 0.0 
0.0361634 -0.0153209 0.0 
1.00939 0.000825885 0.0 
8.03887e-95 -4.78743e-95 0.0 
1.00829 0.00079983 0.0 
1.02204 0.0428383 0.0 
0 0 0.0 
0 0 0.0 
0 0 0.0 
7.01963e-225 -7.97544e-226 0.0 
0 0 0.0 
0.83576 0.359016 0.0 
0 0 0.0 
0.859027 -0.14657 0.0 
0.425074 0.105973 0.0 
1.64964e-07 2.83248e-08 0.0 
0.590216 -0.228757 0.0 
3.74078e-95 1.58425e-95 0.0 
0 0 0.0 
0 0 0.0 
1.01003 0.000942067 0.0 
1.00789 -0.00205787 0.0 
1.00602 0.00241309 0.0 
1.00946 0.00139384 0.0 
0.983605 0.166631 0.0 
0.246194 -0.00479365 0.0 
1.00839 -0.0015559 0.0 
0.793672 0.0126099 0.0 
1.008 0.000768738 0.0 
1.03078 -0.0518174 0.0 
-1.67479e-153 -1.4822e-155 0.0 
0 0 0.0 
0 0 0.0 
0.867754 0.349083 0.0 
0.977268 0.168073 0.0 
-1.26013e-32 -3.02472e-33 0.0 
1.00751 -0.00118742 0.0 
0.222272 0.0522718 0.0 
0.56541 0.287804 0.0 
1.05486 0.0101108 0.0 
0.000107968 -1.63891e-05 0.0 
0.0219226 -0.000870373 0.0 
0.0248535 -0.00483403 0.0 
1.00618 -0.000158403 0.0 
1.00418 -0.00311337 0.0 
8.11565e-07 3.6262e-08 0.0 
1.00564 0.00076216 0.0 
0.67071 -0.082778 0.0 
0.93391 -0.234306 0.0 
0 0 0.0 
0.368077 0.0231063 0.0 
0.107365 0.00526744 0.0 
0.191888 -0.293971 0.0 
0.061829 -0.00934335 0.0 
0.132082 0.00037191 0.0 
0.66302 0.0216775 0.0 
2.09309e-07 2.08809e-07 0.0 
0.0552777 0.0114086 0.0 
1.00425 -0.00641929 0.0 
4.68318e-05 -2.65494e-06 0.0 
1.01032 0.0011765 0.0 
0 0 0.0 
0.966175 -0.00646672 0.0 
0.458458 0.0296365 0.0 
0.719682 -0.113181 0.0 
0.737013 -0.0499084 0.0 
0.68526 0.168408 0.0 
0 0 0.0 
0.43658 0.0790922 0.0 
0.88401 0.32024 0.0 
0.347383 0.00389359 0.0 
0.442873 0.0497519 0.0 
0.991222 0.0110888 0.0 
1.00816 -0.00249264 0.0 
0.0580484 0.00811758 0.0 
1.00628 0.000296357 0.0 
0.338725 -0.0166785 0.0 
0.609693 0.161995 0.0 
0.0641273 0.0140492 0.0 
0.0115355 0.000115086 0.0 
1.0063 0 0.0 
0.19724 -0.026293 0.0 
1.00995 -0.00197086 0.0 
0.263523 0.020907 0.0 
0.0556185 -0.00682189 0.0 
0.850907 0.168435 0.0 
8.73084e-05 -8.0245e-07 0.0 
0.911022 0.337565 0.0 
0.903609 0.0368318 0.0 
1.00855 -0.000994244 0.0 
0.412685 0.00293629 0.0 
0.462468 0.0128613 0.0 
1.0073 -0.000948787 0.0 
1.05657 -0.244395 0.0 
0.954755 -0.0475958 0.0 
0.581429 0.0824833 0.0 
1.01162 0.00079218 0.0 
1.12153 0.117321 0.0 
1.00575 -0.00358734 0.0 
0.0164095 0.000207544 0.0 
-6.44479e-268 -1.00631e-268 0.0 
-2.51827e-47 -3.07963e-48 0.0 
1.00797 -0.00982831 0.0 
0.731474 0.33173 0.0 
0.0940177 -0.0107597 0.0 
0.0982213 -0.144245 0.0 
0.327317 -0.00999401 0.0 
6.33743e-05 3.79138e-06 0.0 
0 0 0.0 
1.08438 -0.0356231 0.0 
1.01005 0.00114808 0.0 
-1.4175e-20 -1.71081e-21 0.0 
1.00974 -0.00154062 0.0 
0.145406 -0.0208827 0.0 
1.00909 -0.00181167 0.0 
0.334109 0.174753 0.0 
0.703866 0.00154814 0.0 
0.801562 0.164601 0.0 
1 0 0.0 
0.373318 0.0276516 0.0 
-7.22717e-131 6.54774e-132 0.0 
1.00737 -0.000715861 0.0 
0.798819 -0.0357306 0.0 
1.00713 -0.00141014 0.0 
0.105463 0.0188283 0.0 
0.565191 0.0216569 0.0 
0.0068274 0.000162339 0.0 
0.0771577 -0.0064716 0.0 
0.454158 -0.344122 0.0 
1.05255 -0.132265 0.0 
0.285274 0.135385 0.0 
1.00779 -0.0019264 0.0 
1.01875 -0.078151 0.0 
0.973962 0.0122135 0.0 
1.00768 -0.00124037 0.0 
0.753969 -0.102234 0.0 
0.271517 -0.0194057 0.0 
0.0140224 -0.00717056 0.0 
0.706797 0.0960606 0.0 
6.89474e-282 9.64812e-283 0.0 
1.00775 0.00145741 0.0 
0.372133 -0.00625058 0.0 
0.879084 0.271107 0.0 
0.283024 0.0459178 0.0 
0.367677 0.0465864 0.0 
0.0155635 0.000769023 0.0 
1.06823 -0.167451 0.0 
3.46875e-298 3.54622e-299 0.0 
0.734521 -0.00022094 0.0 
1.0149 -0.205848 0.0 
1.00929 0.00132551 0.0 
0.777565 0.26373 0.0 
0.857685 -0.0508001 0.0 
0 0 0.0 
0.91562 -0.131146 0.0 
0 0 0.0 
1.01011 0.00101176 0.0 
1.00737 0.000505569 0.0 
1.01175 0.00929331 0.0 
0.00461488 0.000493421 0.0 
0.063086 -0.0176249 0.0 
0.688617 -0.126152 0.0 
0.661526 0.155136 0.0 
0.00638874 0.000736691 0.0 
0.406289 0.0705783 0.0 
1.06569 0.189531 0.0 
0.714378 -0.0977436 0.0 
1.10701 0.168612 0.0 
0.724301 0.12147 0.0 
0.673443 0.0994229 0.0 
0.721788 0.156162 0.0 
1e-307 1e-307 0.0 
-2.40129e-280 -3.74944e-281 0.0 
0.933122 -0.0569883 0.0 
0.262166 -0.096659 0.0 
0.792588 -0.0105002 0.0 
0.16179 -0.0100657 0.0 
0.956738 -0.00590801 0.0 
0.282142 0.0240174 0.0 
0.209112 -0.0793974 0.0 
0.608797 0.341106 0.0 
0.892679 0.000320562 0.0 
0.102017 -0.0114612 0.0 
0.0597527 -0.0182071 0.0 
1.00059 -0.00295225 0.0 
7.43223e-09 1.23919e-08 0.0 
0.473742 0.331485 0.0 
0.761456 0.327765 0.0 
0.077634 -0.0140264 0.0 
0.0231586 -0.00474764 0.0 
0.999341 0.000762273 0.0 
1.00087 0.00232734 0.0 
1.01113 -0.00178707 0.0 
0.843698 -0.260985 0.0 
0.475619 0.29077 0.0 
0.169166 0.106418 0.0 
1.00896 -0.00163445 0.0 
0.843347 0.0140219 0.0 
1.01091 -0.00317845 0.0 
1.00695 -0.000170586 0.0 
0.737174 -0.0105964 0.0 
0.610468 0.305494 0.0 
0.806554 0.0185817 0.0 
1.00849 0.00120789 0.0 
0.0872888 -0.00944186 0.0 
1.00202 0.00172037 0.0 
0.946626 -0.0529914 0.0 
0.259553 -0.0478173 0.0 
0.253377 0.00903929 0.0 
0 0 0.0 
0.430931 0.00413554 0.0 
0.775333 -0.0842585 0.0 
0.120518 -0.00323666 0.0 
0.0922201 0.0103505 0.0 
1.00049 -0.000466657 0.0 
1.00748 -0.000414065 0.0 
1.00202 -0.000376057 0.0 
-1.17e-233 5.60768e-234 0.0 
0.319948 0.0603639 0.0 
1.09459 0.190165 0.0 
0.603429 0.336643 0.0 
1.01368 -0.00164132 0.0 
0.0486311 -0.116899 0.0 
1.00972 -0.00107695 0.0 
0 0 0.0 
0.0234785 0.00022975 0.0 
1.00987 -0.259396 0.0 
0.479624 -0.446358 0.0 
1.00955 -0.0028938 0.0 
1.30083e-06 -1.0961e-07 0.0 
7.72629e-05 3.20848e-06 0.0 
1.0161 -0.010281 0.0 
1.00846 0.00303259 0.0 
0.46272 -0.0137619 0.0 
0.0198953 -0.00645589 0.0 
0.0443817 -0.00694007 0.0 
0.972131 0.224522 0.0 
0 0 0.0 
1.0013 0.00311864 0.0 
1.00929 -0.00153382 0.0 
0.0178557 0.0398925 0.0 
0.116272 -0.0142947 0.0 
1.01072 0.000448221 0.0 
0.25588 -0.0228798 0.0 
0.209209 -0.189239 0.0 
0.232974 -0.055651 0.0 
-5.13166e-78 2.00944e-79 0.0 
1.01577 -0.181241 0.0 
0.153186 0.0368194 0.0 
1e-307 1e-307 0.0 
0.999825 -0.00046533 0.0 
0.594911 -0.347371 0.0 
0.934283 0.0486234 0.0 
0.647713 0.0208121 0.0 
0.899736 -0.0786735 0.0 
1.00884 0.00190557 0.0 
0.788618 0.341585 0.0 
1.00775 0.00124306 0.0 
1.00464 -0.00363132 0.0 
0.637491 0.0891204 0.0 
0.274727 -0.00935936 0.0 
0.0347135 0.00127668 0.0 
0.0208579 -0.00883299 0.0 
1.00009 -0.000655243 0.0 
0.0164219 0.000527942 0.0 
0.98132 -0.0254504 0.0 
1.00618 0 0.0 
0.935776 0.00113838 0.0 
0.0447557 -0.0689346 0.0 
0.810389 0.0787636 0.0 
0.121216 0.0111149 0.0 
1.009 0.000986867 0.0 
0.00200036 -0.000350391 0.0 
0.00853 0.00061 0.0 
0.260463 -0.0288595 0.0 
0.0531858 -0.00205182 0.0 
0.78891 0.366043 0.0 
0.0667416 -0.0141037 0.0 
0.321339 -0.0185413 0.0 
0.00982124 0.000611258 0.0 
0.0631298 0.0101128 0.0 
1.0087 0.000406307 0.0 
1.0044 -0.000650799 0.0 
0 0 0.0 
0.311172 0.265029 0.0 
0.929208 0.00306183 0.0 
-4.47344e-28 -3.73373e-28 0.0 
0.502499 0.0380675 0.0 
0.189437 0.00212993 0.0 
0.634693 -0.136585 0.0 
0.76729 0.372221 0.0 
0.99895 -0.000724796 0.0 
0 0 0.0 
0.133641 0.00604805 0.0 
1.08652 -0.165134 0.0 
0.0212203 -0.00262056 0.0 
0.321163 -0.0218887 0.0 
0.607093 0.315373 0.0 
0 0 0.0 
0.0357624 -0.00661712 0.0 
0.460316 -0.192783 0.0 
0.0727502 -0.000257814 0.0 
-3.20151e-274 -4.99892e-275 0.0 
0.500964 -0.113228 0.0 
0 0 0.0 
0.308028 0.021327 0.0 
0.0100115 -0.000971772 0.0 
1.00527 -0.000724964 0.0 
0.445621 -0.0382107 0.0 
1.00832 -0.000638378 0.0 
0.023869 0.0014817 0.0 
0 0 0.0 
0.00468965 0.000674213 0.0 
0.646481 0.180786 0.0 
2.91069e-23 2.02305e-24 0.0 
1.01414 -0.00672455 0.0 
0.180985 0.0237346 0.0 
1.00616 -0.000621737 0.0 
1.07382 -0.0966313 0.0 
0.801575 -0.139989 0.0 
0.156974 -0.0162442 0.0 
1.126 0.107146 0.0 
1.01266 -0.00282815 0.0 
0.853186 -0.117751 0.0 
0.0919956 0.00424218 0.0 
9.92142e-15 -2.3245e-15 0.0 
0.759695 0.197847 0.0 
1.00895 -0.0156839 0.0 
0.0947884 0.00551447 0.0 
-4.19756e-156 9.43389e-157 0.0 
0.433269 0.110632 0.0 
0.902538 0.0422414 0.0 
0 0 0.0 
1.09468 -0.113125 0.0 
1.53495e-295 1.56923e-296 0.0 
0.000872138 9.90614e-05 0.0 
1.00249 0.00691008 0.0 
0.884409 -0.0502963 0.0 
1.0002 -0.000286232 0.0 
-5.90084e-276 -9.21372e-277 0.0 
0.00364293 -0.000345404 0.0 
0.0542819 -0.00589762 0.0 
0.0688051 0.0139831 0.0 
0.0164265 0.000195818 0.0 
0.34425 -0.0258425 0.0 
0.129487 0.00787245 0.0 
1.06212 0.0636113 0.0 
1.00945 0 0.0 
0.503766 0.00928138 0.0 
-1.07926e-14 -1.45733e-15 0.0 
0.709226 -0.378505 0.0 
0.0847918 -0.108742 0.0 
2.41592e-69 -1.44317e-71 0.0 
1.05648 0.00324113 0.0 
0.306136 0.0449476 0.0 
0.657154 -0.286576 0.0 
0 0 0.0 
0.52906 -0.0576273 0.0 
0.851116 -0.0229547 0.0 
0.0806376 -0.00806613 0.0 
1.00716 0.00105693 0.0 
0.920499 -0.0848204 0.0 
0.00295999 -0.000446596 0.0 
0.00597784 0.000919465 0.0 
0.716037 -0.267762 0.0 
1.00704 0.000206827 0.0 
1.00007 0.000319539 0.0 
2.94552e-96 -2.37972e-97 0.0 
4.0354e-05 2.54038e-06 0.0 
0.24909 -0.038628 0.0 
1.02894 0.214576 0.0 
0.715962 0.337017 0.0 
0.953394 0.0446824 0.0 
0.647492 0.256219 0.0 
0.711647 0.270966 0.0 
0.835723 -0.032698 0.0 
0.0734615 -0.00232613 0.0 
2.64549e-15 -2.62888e-16 0.0 
1.00786 0.00293453 0.0 
0.275626 -0.347249 0.0 
0.011159 0.000239492 0.0 
0.0896954 -0.0915571 0.0 
0.0897261 0.0148576 0.0 
-5.07761e-265 9.66783e-267 0.0 
0.676601 0.241473 0.0 
0.00276475 0.000223833 0.0 
0.70875 0.375423 0.0 
1.00964 0.00121314 0.0 
0.827484 -0.120275 0.0 
0.557655 -0.0641364 0.0 
0.539348 0.100319 0.0 
0.727792 0.308175 0.0 
1.00035 -0.000265618 0.0 
0.90413 0.0257281 0.0 
0.344771 -0.0249097 0.0 
1.00971 0.00126595 0.0 
0.608174 -0.292703 0.0 
0.00862062 0.000727821 0.0 
0.0270151 0.00337971 0.0 
1.62986e-50 -1.37386e-51 0.0 
0.762148 0.305135 0.0 
0 0 0.0 
0.987463 -0.0037398 0.0 
1.00188 -0.00275541 0.0 
1.0051 -0.00157278 0.0 
0.0456821 -0.00316346 0.0 
0.0791759 0.0385625 0.0 
0.989017 0.00858394 0.0 
0.000364761 2.07044e-05 0.0 
1.05725 0.217436 0.0 
0.423922 -0.124307 0.0 
1.01071 0.000702554 0.0 
0.119789 0.109531 0.0 
0.579682 -0.434478 0.0 
1.00847 0.00113357 0.0 
1.00031 0 0.0 
0.448242 -0.101015 0.0 
0.540675 -0.0345082 0.0 
7.38343e-95 3.12693e-95 0.0 
0.922452 0.148103 0.0 
0.712433 0.0535674 0.0 
0.984209 -0.226892 0.0 
0.495985 0.106321 0.0 
0.893425 -0.00587525 0.0 
0.066392 -0.00138656 0.0 
0.934165 0.11529 0.0 
0.18945 0.0401982 0.0 
0.00587878 -6.7888e-05 0.0 
3.69865e-45 3.08683e-46 0.0 
1.83412e-307 1e-307 0.0 
0 0 0.0 
1.00389 -0.00201959 0.0 
0.473492 -0.0838323 0.0 
1.01007 0.00130085 0.0 
6.4096e-97 -1.78651e-97 0.0 
0.460953 -0.0421013 0.0 
0.315788 0.0747881 0.0 
0.110224 -0.0120678 0.0 
1.0043 -0.00121685 0.0 
0 0 0.0 
1.00558 -0.00074927 0.0 
1.01725 -0.0143513 0.0 
-1.88845e-13 6.06227e-15 0.0 
0.748769 0.277349 0.0 
1.00664 -0.00130241 0.0 
0.940648 0.125496 0.0 
1.85056e-05 -1.90423e-06 0.0 
0.150251 0.0178532 0.0 
1.00783 0 0.0 
0.136051 0.00306964 0.0 
0.935965 -0.0989284 0.0 
0.0331373 -0.0118011 0.0 
0.491638 -0.0487247 0.0 
0.769018 0.364507 0.0 
0.747178 0.0633418 0.0 
0.57931 -0.0614086 0.0 
0.0247135 0.000214871 0.0 
0.863513 0.354125 0.0 
0.493057 -0.17214 0.0 
0.81454 0.356049 0.0 
-2.38142e-13 -3.06979e-14 0.0 
0.0148766 -0.00719217 0.0 
0.943241 -0.334572 0.0 
1.8915e-12 5.55847e-13 0.0 
0.74633 -0.090174 0.0 
0.188032 -0.0275714 0.0 
5.23599e-200 -5.94898e-201 0.0 
0.271005 -0.0200366 0.0 
0.994382 0.0146872 0.0 
1.04987 0.102722 0.0 
0 0 0.0 
1.00009 0.000618167 0.0 
0.000402859 9.10195e-05 0.0 
7.80197e-221 -8.8643e-222 0.0 
0.415523 -0.00495191 0.0 
0.108971 -0.00996156 0.0 
0.0459609 -0.00979445 0.0 
0.407162 -0.00332344 0.0 
0.810033 0.12717 0.0 
0.0104648 0.00053302 0.0 
0.416931 0.0401288 0.0 
0.455386 -0.0477189 0.0 
0.1381 0.0073816 0.0 
0.781912 0.135341 0.0 
1e-307 1e-307 0.0 
1.07728 -0.174452 0.0 
0.121597 -0.00688358 0.0 
1.01743 -0.0438895 0.0 
-1.66664e-239 -5.67752e-241 0.0 
0.800035 0.0731883 0.0 
0.556096 -0.000666536 0.0 
1.61579e-127 5.33722e-129 0.0 
0.697619 -0.44899 0.0 
0.767835 0.0874807 0.0 
0.00424416 0.00056465 0.0 
0.00731683 0.000660464 0.0 
0.951263 0.0621588 0.0 
-2.65905e-29 4.74786e-30 0.0 
1.00993 -0.00209995 0.0 
0.772125 -0.290225 0.0 
0.0487211 -0.0929056 0.0 
0.231366 0.00967818 0.0 
1.00755 -0.00023125 0.0 
1.00701 -0.000651776 0.0 
0.439231 0.0245667 0.0 
0.171484 0.0126449 0.0 
1.00011 0.000289247 0.0 
1.0104 0.162056 0.0 
1.01067 7.7685e-05 0.0 
1.01167 -0.00243432 0.0 
0.167159 0.0628101 0.0 
0.591077 0.080591 0.0 
0.0430319 -0.0166594 0.0 
0.984877 -0.0293744 0.0 
0.0975601 0.00930523 0.0 
0.101356 0.0128705 0.0 
0 0 0.0 
-4.39927e-163 -1.38052e-164 0.0 
0.929086 0.000605886 0.0 
0.164238 -0.0984149 0.0 
1.00011 0.000891066 0.0 
0.49703 -0.353062 0.0 
0.862086 0.258502 0.0 
0 0 0.0 
1.09057 -0.05551 0.0 
1.00963 0.00166173 0.0 
0.90883 0.0105441 0.0 
0.8923 -0.301055 0.0 
0.0353392 0.0333624 0.0 
1.01056 -0.00268081 0.0 
0.439297 -0.010304 0.0 
0.966151 0.305181 0.0 
0.00132365 -0.000196104 0.0 
4.4913e-92 1.90209e-92 0.0 
0 0 0.0 
1.00804 0.000837316 0.0 
0.183933 0.126277 0.0 
0.0130105 0.000838073 0.0 
0.279758 -0.0323094 0.0 
0.0279648 -0.0023951 0.0 
2.31941e-05 -2.03212e-06 0.0 
0.989861 0.00217976 0.0 
0.0809403 -0.177348 0.0 
1.00045 0.00517028 0.0 
0.0379094 -0.014948 0.0 
-6.23218e-295 -5.47362e-296 0.0 
0.950558 0.268653 0.0 
1 0 0.0 
0 0 0.0 
0.0143381 -0.000758842 0.0 
1.01211 -0.294169 0.0 
1e-307 0 0.0 
0.3234 0.165606 0.0 
0.00469325 -0.000762406 0.0 
0.197624 0.178621 0.0 
-9.04538e-50 -4.42743e-51 0.0 
1.00809 0.000227553 0.0 
0.999522 -0.000238264 0.0 
1.07915 -0.201752 0.0 
-3.93817e-18 -1.09054e-19 0.0 
0 0 0.0 
1.0034 -0.00365807 0.0 
1.04233 0.0728042 0.0 
1.00692 0.256773 0.0 
1 0.000211531 0.0 
1.00752 0.000683533 0.0 
5.14657e-05 8.28577e-06 0.0 
2.89243e-08 -8.62394e-10 0.0 
1.00975 -0.00198526 0.0 
0.180858 0.00362963 0.0 
0 0 0.0 
0.609407 -0.46417 0.0 
1.00849 -0.00143803 0.0 
0.727361 0.191284 0.0 
1.006 0 0.0 
0.678258 0.199177 0.0 
0.170824 0.0011333 0.0 
0.500878 0.152016 0.0 
1.00638 -0.000649053 0.0 
0 0 0.0 
0.900834 0.251982 0.0 
1.00887 -0.000792784 0.0 
1.03628 -0.272808 0.0 
0.736735 -0.0347639 0.0 
1.00718 -0.00109156 0.0 
0.199374 0.0036683 0.0 
1.00934 0.00245134 0.0 
0.787896 0.21816 0.0 
4.6731e-98 -7.34837e-98 0.0 
0.784363 -0.230256 0.0 
0.0195504 -0.000457115 0.0 
0.68643 -0.0464949 0.0 
0.269633 0.00614343 0.0 
0.591378 -0.0729699 0.0 
1.00781 0.000896142 0.0 
1.09294 -0.096157 0.0 
1.00772 -0.045005 0.0 
1.0084 0.001812 0.0 
1.00954 -0.00187309 0.0 
0.0660252 0.0197778 0.0 
0.0184448 -0.0018596 0.0 
1.00034 -0.000525372 0.0 
0.0125627 0.000570516 0.0 
-3.15625e-17 -2.62972e-18 0.0 
0.451389 -0.00471904 0.0 
-2.84102e-51 6.07274e-52 0.0 
0 0 0.0 
4.5275e-84 5.21097e-85 0.0 
0.943194 0.155531 0.0 
0.943571 -0.359582 0.0 
7.46781e-05 -6.54417e-06 0.0 
0.692835 -0.289479 0.0 
0 0 0.0 
1.01061 -0.00201472 0.0 
0.0485308 -0.00342178 0.0 
0 0 0.0 
0.618254 0.0274566 0.0 
1.00851 -0.00112415 0.0 
1.00976 -0.00207891 0.0 
0.574485 0.22279 0.0 
0.650239 0.27672 0.0 
1.0091 0.000481245 0.0 
0.0157921 -0.00058826 0.0 
0.92074 -0.30475 0.0 
1.00003 0.000515626 0.0 
0.745506 -0.428359 0.0 
0.951471 0.283726 0.0 
0.996558 -0.00385456 0.0 
0.865678 0.188164 0.0 
0.0140821 0.000458849 0.0 
0.117845 -0.0214762 0.0 
0.819325 -0.244792 0.0 
0.905366 0.332 0.0 
0.161117 0.167864 0.0 
0 0 0.0 
0.124483 0.0176594 0.0 
0.00196944 -0.000375011 0.0 
0.0331695 -0.0150205 0.0 
1.01734 -0.111233 0.0 
0.00704916 -0.00043632 0.0 
0.802194 -0.352192 0.0 
0.817942 0.36412 0.0 
1.01111 -0.00290207 0.0 
0 0 0.0 
1.00717 -0.00163898 0.0 
0.873108 -0.00388251 0.0 
0.454572 0.160299 0.0 
1.00902 0.00896104 0.0 
0.645348 -0.00936411 0.0 
0.00718684 0.000349135 0.0 
1.00687 0.00012637 0.0 
0.0240738 0.000787171 0.0 
1.00628 0.153019 0.0 
0.0160916 0.00113869 0.0 
0.764951 0.0135466 0.0 
1.00792 0.000828828 0.0 
0.00875903 0.000818784 0.0 
0 0 0.0 
1.00544 0.00606107 0.0 
1.00832 0.000263772 0.0 
-5.98475e-234 -6.94858e-235 0.0 
1.00051 0.000588735 0.0 
0.25777 -0.0463723 0.0 
0.682488 -0.107236 0.0 
1.01023 0.00160651 0.0 
1.00253 0.000191748 0.0 
0.751985 0.0991209 0.0 
0.00612602 -8.27659e-05 0.0 
0.175829 -0.0171987 0.0 
1.00958 -0.00764308 0.0 
0 0 0.0 
0.478892 -0.159658 0.0 
0.968692 -0.341631 0.0 
0.0133597 -0.000708389 0.0 
0.0495882 -0.00521297 0.0 
0.871926 -0.0451519 0.0 
0.000140876 -4.61995e-06 0.0 
1.00634 0.00158754 0.0 
0.849021 0.331742 0.0 
0 0 0.0 
0.0346171 0.00272033 0.0 
1.00823 0.0010666 0.0 
0.142676 -0.0149894 0.0 
0.999082 0.00774103 0.0 
1.01057 0.270865 0.0 
0.0142557 -0.000322825 0.0 
0.561158 -0.208235 0.0 
1.00932 -0.00190425 0.0 
0.000201369 5.94162e-06 0.0 
0.839837 -0.0168385 0.0 
0.806016 0.165336 0.0 
1.01152 -0.00210953 0.0 
0.842887 0.345748 0.0 
1.00872 2.11263e-06 0.0 
0.841015 0.32262 0.0 
0.846465 0.296995 0.0 
0.0817182 0.00305229 0.0 
0 0 0.0 
1.00001 -0.000532691 0.0 
1.00721 -0.00120988 0.0 
0.881334 -0.071435 0.0 
0.219732 -0.0419053 0.0 
0.892077 -0.0282605 0.0 
0.616044 -0.116897 0.0 
1.00402 0 0.0 
0.0751731 -0.00377022 0.0 
0.564053 0.0550408 0.0 
0.151864 0.00357099 0.0 
0.945775 0.181747 0.0 
1.00798 0.000545795 0.0 
0.15754 -0.251597 0.0 
1.0043 -0.00212257 0.0 
1.00253 -0.0041224 0.0 
0.244259 0.0442431 0.0 
0.999992 0.000343011 0.0 
0.812175 0.0277593 0.0 
0 0 0.0 
-2.45864e-40 -2.67e-41 0.0 
0.621156 0.370652 0.0 
0 0 0.0 
0.111895 0.0361292 0.0 
-1.61946e-42 -1.47384e-43 0.0 
0.662371 0.00754206 0.0 
1.01736 -0.00197239 0.0 
0.840993 0.341673 0.0 
0.880992 -0.0122711 0.0 
1.06295 0.160612 0.0 
4.18813e-07 -6.48303e-09 0.0 
0.35346 0.0905333 0.0 
1.01001 0.019908 0.0 
0.735332 0.301967 0.0 
1.02494 0.0567502 0.0 
-5.97492e-37 -5.63523e-38 0.0 
0.619917 0.0109336 0.0 
1.00055 0.00243632 0.0 
0.0054407 -0.000217356 0.0 
0.696935 0.0619844 0.0 
0.594217 -0.0277419 0.0 
0.259122 0.0263565 0.0 
0.00429088 0.000493864 0.0 
1.01077 -0.00201899 0.0 
0.0752657 0.0155743 0.0 
0.859282 -0.402507 0.0 
0.998269 -0.000773231 0.0 
1.00718 0.000201498 0.0 
0.88282 0.341633 0.0 
1.01522 -0.000955902 0.0 
1.0077 -0.00267684 0.0 
1.00823 0.00139089 0.0 
0.952243 -0.046054 0.0 
0.0684907 -0.0012225 0.0 
0.0896088 0.0559157 0.0 
0.677879 -0.367137 0.0 
1.00491 0.00114115 0.0 
0.996759 -0.00188215 0.0 
0.593518 -0.143062 0.0 
0.113088 0.00502077 0.0 
0.0178567 0.000919887 0.0 
0.999552 0.00105981 0.0 
0.933143 0.0215576 0.0 
0.841232 0.0233407 0.0 
1.00011 -0.000157321 0.0 
-3.37574e-54 -2.20939e-55 0.0 
0.0472864 -0.00900363 0.0 
1.00053 0.00426155 0.0 
0.339463 -0.244046 0.0 
1.05233 0.00110158 0.0 
0.999954 -0.000492684 0.0 
0.549322 -0.0152301 0.0 
0.171113 0.000860634 0.0 
0.154139 0.0554009 0.0 
6.09726e-57 -7.81949e-57 0.0 
0.112639 0.00190576 0.0 
0.311267 -0.262715 0.0 
0.960859 -0.110967 0.0 
9.23417e-07 1.43412e-07 0.0 
1.00498 -0.00286923 0.0 
0.918072 0.283019 0.0 
-3.01756e-40 8.71656e-42 0.0 
0.470215 -0.0258086 0.0 
1.00709 -0.00267451 0.0 
1.00862 -0.00143125 0.0 
0.0376789 -0.00862377 0.0 
0.133412 -0.0765309 0.0 
0.0492489 0.00416404 0.0 
0.0431589 0.0102741 0.0 
1.00992 0.00138299 0.0 
0.349377 0.0528229 0.0 
0.0703892 0.00608146 0.0 
0.896933 0.222853 0.0 
0.0249986 0.0067651 0.0 
0.08626 0.00496284 0.0 
0.988421 0.0774769 0.0 
0.0145113 0.000807574 0.0 
0.140404 -0.0131756 0.0 
4.08157e-07 -2.91468e-08 0.0 
0.536793 -0.0620967 0.0 
0.235991 0.0943163 0.0 
0.526452 0.0958726 0.0 
1.49165e-08 -1.91298e-08 0.0 
0.982583 0.175747 0.0 
0.879664 -0.0733193 0.0 
1.00997 0.00361573 0.0 