<VTKFile type="UnstructuredGrid" version="0.1" byte_order="LittleEndian">
  <UnstructuredGrid>
    <Piece NumberOfPoints="12923" NumberOfCells="25685">
      <Points>
        <DataArray type = "Float64" NumberOfComponents="3" format="ascii">
0 0 0.0 
14 0 0.0 
14 8 0.0 
0 8 0.0 
4.16782 4.09801 0.0 
4.92309 3.98871 0.0 
4.34101 4.0692 0.0 
4.88076 3.99296 0.0 
4.09208 3.95602 0.0 
4.04196 3.99899 0.0 
4.33592 4.0755 0.0 
4.71312 3.984 0.0 
3.93749 4.02683 0.0 
6.48058 8 0.0 
3.96554 4.00011 0.0 
5.01567 4.00099 0.0 
4.24106 4.06691 0.0 
4.21045 3.93618 0.0 
4.67374 3.98272 0.0 
4.31443 4.05291 0.0 
4.01323 3.99894 0.0 
6.96984 4.30668 0.0 
4.25007 4.10489 0.0 
3.47027 3.44831 0.0 
8.08359 1.05344 0.0 
4.05294 3.9349 0.0 
3.94972 4.08989 0.0 
4.00962 4.08349 0.0 
4.57894 1.01439 0.0 
4.0008 3.98691 0.0 
4.19185 4.16745 0.0 
4.82869 4.02955 0.0 
6.64043 6.6588 0.0 
4.02651 3.98657 0.0 
4.6719 4.04779 0.0 
4.57911 3.9439 0.0 
4.05711 4.03825 0.0 
4.17759 3.97818 0.0 
4.09533 4.03459 0.0 
4.00922 3.99881 0.0 
4.08993 3.97025 0.0 
3.9401 3.99141 0.0 
7.56656 2.21648 0.0 
4.36731 4.05544 0.0 
4.94337 3.99642 0.0 
4.53387 4.06155 0.0 
5.08018 3.96612 0.0 
3.93682 3.99751 0.0 
4.11094 4.03801 0.0 
3.86009 4.03301 0.0 
4.24569 4.05438 0.0 
4.19353 4.07857 0.0 
4.00327 3.99438 0.0 
4.35258 4.06682 0.0 
3.87647 4.36416 0.0 
4.02482 3.96981 0.0 
3.85972 3.76581 0.0 
4.02815 4.04832 0.0 
4.02428 4.03941 0.0 
4.96092 4.01018 0.0 
13.5869 1.32349 0.0 
11.8856 5.40534 0.0 
4.48666 4.03438 0.0 
4.39612 4.04 0.0 
4.00944 4.0008 0.0 
4.96507 4.02144 0.0 
5.05223 3.95822 0.0 
4.42776 4.12032 0.0 
4.01647 3.99236 0.0 
4.79838 3.96439 0.0 
4.00064 4.0045 0.0 
4.21329 3.96553 0.0 
0 6.14845 0.0 
4.05779 3.94742 0.0 
12.1222 6.79508 0.0 
4.0192 3.99331 0.0 
13.1088 3.43087 0.0 
4.65286 3.98245 0.0 
4.97524 4.02614 0.0 
4.17785 3.95317 0.0 
1.00301 3.05384 0.0 
5.00785 4.00312 0.0 
10.8833 7.73481 0.0 
13.3549 8 0.0 
14 6.11123 0.0 
4.00044 4.00535 0.0 
3.99379 4.00703 0.0 
3.96293 3.99513 0.0 
4.07395 4.04246 0.0 
4.22333 3.96601 0.0 
4.18701 3.96799 0.0 
3.99915 4.34556 0.0 
4.2316 3.94569 0.0 
3.88293 4.06948 0.0 
4.12243 3.96659 0.0 
4.71927 4.04408 0.0 
4.0339 4.05256 0.0 
4.33994 3.99403 0.0 
3.98822 4.0043 0.0 
5.03684 4.01469 0.0 
4.97895 4.00608 0.0 
4.68605 4.09304 0.0 
4.06234 3.9498 0.0 
4.00325 3.99521 0.0 
4.01076 4.00369 0.0 
4.04429 4.0401 0.0 
14 5.21618 0.0 
4.62771 4.0558 0.0 
4.01104 3.98573 0.0 
4.3018 4.08028 0.0 
4.28749 4.07809 0.0 
3.94943 3.96456 0.0 
4.93763 4.01219 0.0 
4.76751 4.0543 0.0 
4.80536 4.01156 0.0 
4.74266 4.0412 0.0 
4.29529 4.08944 0.0 
4.39093 4.06947 0.0 
4.88044 0 0.0 
4.35343 3.94951 0.0 
9.67221 0.852756 0.0 
6.54018 3.00963 0.0 
4.11969 3.96829 0.0 
4.25911 4.13451 0.0 
9.67563 3.21043 0.0 
3.05817 4.59047 0.0 
4.34569 4.08404 0.0 
12.7967 4.95651 0.0 
4.37798 8 0.0 
4.12623 4.0709 0.0 
4.08373 4.05666 0.0 
4.09568 4.05562 0.0 
3.97807 4.03955 0.0 
4.62072 3.96435 0.0 
4.27852 0 0.0 
5.04845 4.04311 0.0 
4.29262 4.07791 0.0 
5.059 3.96921 0.0 
4.08489 3.96352 0.0 
4.13434 4.07811 0.0 
4.56742 3.97749 0.0 
4.49149 4.06492 0.0 
4.35474 4.08037 0.0 
4.70266 8 0.0 
5.50065 6.93147 0.0 
4.19767 3.93669 0.0 
5.12565 3.90485 0.0 
4.17936 3.96643 0.0 
4.1879 3.79398 0.0 
4.22225 3.98357 0.0 
5.00671 4.01055 0.0 
5.52872 3.97338 0.0 
4.1741 4.07586 0.0 
3.99922 3.99464 0.0 
4.96719 3.98168 0.0 
4.8867 4.02132 0.0 
3.9956 4.03796 0.0 
4.92935 3.96041 0.0 
4.08778 3.97036 0.0 
3.91267 2.38613 0.0 
4.02873 4.0411 0.0 
4.88146 4.04087 0.0 
4.29787 4.08601 0.0 
4.08859 4.05676 0.0 
4.22238 3.99113 0.0 
4.04894 3.98467 0.0 
4.05538 3.9957 0.0 
4.12124 3.98374 0.0 
4.2266 4.04317 0.0 
4.08226 3.93581 0.0 
4.17912 4.05461 0.0 
4.77679 6.83218 0.0 
4.24743 3.99271 0.0 
5.05381 3.98346 0.0 
4.99458 4.03862 0.0 
4.11368 4.05232 0.0 
3.9986 0 0.0 
4.1829 4.06659 0.0 
4.12635 4.07409 0.0 
0 1.4212 0.0 
4.37277 5.70972 0.0 
5.68206 5.22786 0.0 
4.18679 4.08465 0.0 
4.96498 3.99691 0.0 
4.69159 4.07245 0.0 
6.43644 7.53599 0.0 
4.30236 3.96785 0.0 
4.25777 4.07923 0.0 
4.9908 4.01037 0.0 
4.96347 3.98813 0.0 
4.0644 3.93891 0.0 
2.18452 1.43095 0.0 
4.16503 4.11076 0.0 
5.97167 4.17203 0.0 
4.28283 3.94673 0.0 
4.69131 4.03935 0.0 
4.19206 3.91938 0.0 
4.75908 3.98748 0.0 
3.96023 4.01528 0.0 
4.09641 3.95124 0.0 
4.12454 3.92729 0.0 
4.08491 4.0641 0.0 
3.96293 4.03138 0.0 
4.7564 4.03771 0.0 
4.06298 3.99231 0.0 
4.1871 4.07564 0.0 
4.23768 4.04493 0.0 
4.01849 3.98182 0.0 
4.21125 3.95113 0.0 
3.99252 4.00665 0.0 
4.53261 3.97621 0.0 
4.17636 4.06982 0.0 
4.01378 4.004 0.0 
4.55426 4.09633 0.0 
3.94066 3.96869 0.0 
5.41928 4.06199 0.0 
3.95819 3.97698 0.0 
4.67086 3.98289 0.0 
4.68936 4.05518 0.0 
4.23165 4.07938 0.0 
9.28793 6.2702 0.0 
4.15636 4.04974 0.0 
3.95778 3.98461 0.0 
4.00374 3.93898 0.0 
3.9419 3.97853 0.0 
4.24533 4.11643 0.0 
4.19018 4.05306 0.0 
4.10081 3.94382 0.0 
4.91215 4.08105 0.0 
4.15247 3.96594 0.0 
4.73823 3.98607 0.0 
3.99651 4.05409 0.0 
8.23482 7.7858 0.0 
4.22913 4.08121 0.0 
5.00368 4.02219 0.0 
4.01706 3.99618 0.0 
3.9771 4.03148 0.0 
4.18442 4.04414 0.0 
6.89479 7.20775 0.0 
4.2207 3.95809 0.0 
4.15561 4.10177 0.0 
4.18309 4.12442 0.0 
3.96476 4.03852 0.0 
4.36006 4.05676 0.0 
4.6978 4.06442 0.0 
4.25498 3.95108 0.0 
4.70361 4.12648 0.0 
3.96822 4.02719 0.0 
3.97233 4.04194 0.0 
3.98573 3.91699 0.0 
4.35849 4.05918 0.0 
4.39564 4.08373 0.0 
4.0284 4.03115 0.0 
4.20876 3.92492 0.0 
3.92251 4.00785 0.0 
4.35064 3.94532 0.0 
4.57084 4.10245 0.0 
3.93598 3.52359 0.0 
4.56774 3.97658 0.0 
4.35286 4.06185 0.0 
4.3089 4.04268 0.0 
4.60444 4.05605 0.0 
10.2807 1.2926 0.0 
4.34994 4.09246 0.0 
4.14583 4.0438 0.0 
3.94564 3.99975 0.0 
10.366 2.72684 0.0 
4.55503 4.06085 0.0 
4.84127 3.07705 0.0 
5.0401 4.02083 0.0 
4.98371 4.01321 0.0 
4.0062 4.04545 0.0 
10.7487 6.98032 0.0 
4.68102 3.9834 0.0 
4.18339 3.96612 0.0 
11.7013 4.10211 0.0 
4.27554 4.05011 0.0 
4.18234 3.96348 0.0 
5.46391 0 0.0 
4.1384 3.95607 0.0 
2.65179 3.74538 0.0 
4.02699 4.00512 0.0 
4.5533 4.04791 0.0 
4.65358 3.98158 0.0 
4.36894 4.08372 0.0 
4.05428 3.94079 0.0 
4.55863 4.05907 0.0 
4.55344 4.06024 0.0 
4.02341 4.03456 0.0 
4.15249 3.96197 0.0 
4.52724 7.41561 0.0 
5.05919 4.01855 0.0 
0.808626 5.25399 0.0 
4.57413 3.97819 0.0 
4.5587 3.97754 0.0 
1.63427 7.45641 0.0 
4.2266 3.92159 0.0 
6.46238 5.54298 0.0 
4.59389 3.9679 0.0 
4.94406 3.97395 0.0 
5.15553 3.95707 0.0 
4.63926 4.06169 0.0 
4.06103 3.9941 0.0 
4.45327 4.05752 0.0 
1.24078 0.550265 0.0 
4.2284 4.07124 0.0 
3.99523 3.95021 0.0 
2.38032 0.204862 0.0 
4.19829 3.99725 0.0 
9.1005 7.43296 0.0 
4.86372 3.99252 0.0 
4.26148 3.94171 0.0 
5.24138 0.4505 0.0 
4.38843 4.07639 0.0 
4.96606 4.007 0.0 
4.01517 4.03055 0.0 
4.28395 4.08907 0.0 
5.01232 4.10726 0.0 
2.32058 7.68471 0.0 
4.34826 3.96973 0.0 
4.02246 4.02836 0.0 
5.7884 3.76979 0.0 
3.99908 3.98836 0.0 
5.14793 4.17318 0.0 
4.12151 3.94609 0.0 
4.16296 3.93919 0.0 
3.98207 3.99993 0.0 
3.99924 4.00166 0.0 
4.36051 4.07918 0.0 
4.18608 3.9663 0.0 
4.08943 3.92607 0.0 
4.97222 4.02124 0.0 
0.374979 4.67127 0.0 
4.12673 3.95742 0.0 
3.87392 4.19363 0.0 
4.73078 4.04292 0.0 
4.2163 3.94824 0.0 
4.95013 4.23385 0.0 
4.22957 3.95099 0.0 
4.2229 3.96791 0.0 
5.23586 3.96722 0.0 
5.1327 4.04445 0.0 
4.8763 3.99232 0.0 
3.99623 4.0615 0.0 
3.9628 1.8174 0.0 
4.33924 3.94067 0.0 
4.25796 4.11097 0.0 
4.2655 3.94563 0.0 
4.45563 4.06486 0.0 
4.13593 4.11562 0.0 
3.99014 3.98454 0.0 
4.12408 3.94161 0.0 
5.01406 4.00201 0.0 
9.55659 5.17512 0.0 
4.61132 3.92418 0.0 
4.66701 4.07141 0.0 
4.0089 4.00797 0.0 
4.17827 3.96351 0.0 
0.371987 0.577063 0.0 
4.03513 3.9876 0.0 
3.97686 4.1004 0.0 
6.24658 4.08565 0.0 
4.85253 4.00914 0.0 
4.71565 3.98581 0.0 
3.87595 4.05047 0.0 
4.1383 3.82508 0.0 
3.81271 3.98978 0.0 
11.4717 0.893933 0.0 
6.60052 7.75686 0.0 
4.255 4.06009 0.0 
4.50779 4.06489 0.0 
4.51983 4.11882 0.0 
4.97741 4.01129 0.0 
4.21613 4.06761 0.0 
4.30211 3.98484 0.0 
4.63797 3.9822 0.0 
4.17983 4.0788 0.0 
9.99449 1.23884 0.0 
5.82083 5.49788 0.0 
4.2489 4.09629 0.0 
5.06347 3.99507 0.0 
3.99882 3.99972 0.0 
4.2295 4.0772 0.0 
4.32398 4.05563 0.0 
5.08198 4.04957 0.0 
4.11299 3.96879 0.0 
5.02947 4.00625 0.0 
4.23096 3.96787 0.0 
4.89032 4.00776 0.0 
7.10873 4.95265 0.0 
4.44772 3.97332 0.0 
4.01887 4.0029 0.0 
6.91256 3.08935 0.0 
9.48986 0.253823 0.0 
4.14183 3.94415 0.0 
4.11519 4.05302 0.0 
4.8459 4.02676 0.0 
4.99564 3.98921 0.0 
3.99883 4.01382 0.0 
14 7.66915 0.0 
4.39598 3.97077 0.0 
4.08942 3.95104 0.0 
4.07393 4.02262 0.0 
6.88636 4.77508 0.0 
4.01165 4.04753 0.0 
4.77345 3.98753 0.0 
4.39387 3.97096 0.0 
4.20227 4.08039 0.0 
4.23985 4.08128 0.0 
3.87595 4.26381 0.0 
5.47551 0.287738 0.0 
4.43488 3.97279 0.0 
4.10203 3.95404 0.0 
4.00012 4.00174 0.0 
3.99752 4.02893 0.0 
4.44776 3.97224 0.0 
4.26259 4.0847 0.0 
4.15582 4.07076 0.0 
4.08123 3.94142 0.0 
4.73304 4.04244 0.0 
4.1339 4.047 0.0 
7.69612 2.66902 0.0 
4.24588 4.08872 0.0 
4.01204 4.00974 0.0 
4.22125 4.03864 0.0 
4.32082 3.96914 0.0 
4.46545 4.83906 0.0 
5.16613 4.24223 0.0 
4.08637 3.98671 0.0 
8.1554 7.24604 0.0 
4.34634 4.12041 0.0 
4.00432 3.99827 0.0 
7.04624 0.443875 0.0 
2.524 2.40322 0.0 
8.40009 2.63277 0.0 
4.87302 4.05381 0.0 
4.87626 4.0147 0.0 
4.04971 3.97435 0.0 
6.24256 5.09809 0.0 
4.15971 4.03211 0.0 
4.0911 3.98345 0.0 
4.14295 3.97632 0.0 
4.52808 4.06447 0.0 
8.87792 8 0.0 
4.57945 3.9937 0.0 
4.01226 4.00188 0.0 
5.0218 3.98124 0.0 
6.6047 2.58067 0.0 
5.10123 3.82604 0.0 
4.0766 3.95386 0.0 
4.40188 3.97177 0.0 
5.10311 4.0306 0.0 
4.9391 3.99603 0.0 
4.54162 4.05023 0.0 
4.55725 3.0351 0.0 
4.61404 3.97964 0.0 
4.10808 3.96074 0.0 
4.08645 3.96932 0.0 
4.45428 3.97293 0.0 
3.98027 4.05285 0.0 
4.60748 3.97986 0.0 
8.67743 7.6852 0.0 
4.00915 4.00336 0.0 
4.45072 4.06596 0.0 
4.72577 3.98511 0.0 
12.676 0.986025 0.0 
4.94561 3.99589 0.0 
4.22898 4.08419 0.0 
4.04077 3.99338 0.0 
4.37392 4.08534 0.0 
4.04446 3.9746 0.0 
4.94447 3.99613 0.0 
4.10231 3.92419 0.0 
4.65956 4.05102 0.0 
13.1066 7.48347 0.0 
[...]
<PointData>
  <DataArray type = "Float64" Name="Vitesse" NumberOfComponents="3" format="ascii">
1 0 0.0 
1.00045 0 0.0 
0.999727 0 0.0 
1 0 0.0 
1.03141 0.172548 0.0 
0.0631865 0.00302161 0.0 
5.99308e-13 -4.70918e-14 0.0 
0.00490862 0.00024637 0.0 
0.622547 -0.081661 0.0 
0 0 0.0 
0.155833 0.0030575 0.0 
0.014747 0.000847005 0.0 
0.769124 0.0386012 0.0 
1.00826 0 0.0 
0.646558 -0.0574367 0.0 
0.0447343 0.00262866 0.0 
0.0450303 0.004453 0.0 
0.742722 -0.0363271 0.0 
0.00870366 0.000935452 0.0 
0 0 0.0 
0 0 0.0 
1.00814 -0.00630968 0.0 
0.949998 0.0976278 0.0 
0.988974 -0.0190714 0.0 
1.00627 0.00193413 0.0 
1.05502 -0.24492 0.0 
0.855441 0.13081 0.0 
0.8825 0.24546 0.0 
1.0075 -0.00217651 0.0 
0.514986 -0.443667 0.0 
1.09492 0.142897 0.0 
0.00303577 -0.000306494 0.0 
1.00905 -0.00271752 0.0 
-2.44006e-31 9.58963e-32 0.0 
-2.58215e-24 2.33876e-25 0.0 
0.438104 0.0116948 0.0 
0.090178 0.0354539 0.0 
0 0 0.0 
0 0 0.0 
0 0 0.0 
0.041473 -0.00473939 0.0 
0.760945 -0.0569271 0.0 
1.00882 0.00395022 0.0 
0 0 0.0 
1.51001e-05 1.05328e-06 0.0 
0.00737865 3.23327e-05 0.0 
0.341324 0.0286151 0.0 
0.763998 -0.0378211 0.0 
0 0 0.0 
0.874464 0.0154262 0.0 
0 0 0.0 
0.570382 0.0732159 0.0 
2.10385e-219 -1.00369e-219 0.0 
-4.02625e-35 -1.73461e-36 0.0 
0.984343 0.0637184 0.0 
0.791491 -0.294862 0.0 
0.966582 -0.062759 0.0 
0.836712 0.360453 0.0 
0.728692 0.348601 0.0 
0.00503875 -0.000704479 0.0 
1.00042 0.000272811 0.0 
0.99928 8.69145e-05 0.0 
0 0 0.0 
0 0 0.0 
0 0 0.0 
0.0426697 -0.00628697 0.0 
0.404454 0.0320427 0.0 
0.916679 0.0177407 0.0 
0 0 0.0 
0.253454 0.010729 0.0 
0.00951078 0.0121379 0.0 
0.0474458 0.000704 0.0 
1 0 0.0 
1.02139 -0.235835 0.0 
0.999664 -0.000123812 0.0 
0 0 0.0 
0.999945 0.000505302 0.0 
3.52424e-05 2.01232e-06 0.0 
0.0689452 -0.0103818 0.0 
0.396237 -0.0163868 0.0 
0.999656 -0.000697005 0.0 
0.0250546 -0.00463429 0.0 
1.00021 -0.000158444 0.0 
0.999731 0 0.0 
0.99973 5.29144e-05 0.0 
0.0200597 0.0345972 0.0 
0.253686 0.0719047 0.0 
0.671522 -0.0811161 0.0 
0.0562389 0.0182241 0.0 
0.0358075 -0.000581047 0.0 
0.000149265 -7.96303e-06 0.0 
1.00131 0.0839833 0.0 
0.499406 -0.0124026 0.0 
0.870804 0.0510102 0.0 
0.0915224 -0.00376593 0.0 
0.00623511 -0.00112003 0.0 
0.869758 0.350281 0.0 
4.82749e-184 7.29347e-185 0.0 
0.376804 -0.0336649 0.0 
0.0632173 -0.00929714 0.0 
0.0027578 -0.000452215 0.0 
0.505065 -0.0292618 0.0 
0.977533 -0.212903 0.0 
5.1288e-219 -2.44682e-219 0.0 
0 0 0.0 
0.471367 0.173889 0.0 
0.999773 0.000135334 0.0 
0.0257977 -0.00245003 0.0 
0.201272 -0.122477 0.0 
0.310204 0.0151226 0.0 
0.274857 0.011066 0.0 
0.794687 -0.130143 0.0 
0.0010906 -9.48015e-05 0.0 
0.120106 -0.0120443 0.0 
3.46371e-234 -3.13548e-235 0.0 
0.00584153 -0.00054194 0.0 
0.549426 0.0319329 0.0 
0.024549 -0.00163405 0.0 
1.00722 0 0.0 
0.348328 0.00389667 0.0 
1.0032 0.0013291 0.0 
1.01037 0.00375294 0.0 
0.0384031 0.00253395 0.0 
1.12223 0.116132 0.0 
1.00049 0.00210354 0.0 
0.991421 0.0113948 0.0 
0.348193 0.00723098 0.0 
0.99959 0.000268717 0.0 
1.00767 0 0.0 
0.719704 0.145689 0.0 
0.610468 0.162801 0.0 
0.437049 0.10772 0.0 
0.702222 0.179462 0.0 
0.188891 0.00759255 0.0 
1.00602 0 0.0 
0.203179 -0.0268156 0.0 
0.26049 0.0111131 0.0 
0.305436 0.0281719 0.0 
0.370968 -0.0458951 0.0 
0.853673 0.168457 0.0 
0.0117369 0.000439475 0.0 
0.0163683 -0.000408527 0.0 
0.256699 0.00326431 0.0 
1.00828 0 0.0 
1.01037 -4.38874e-06 0.0 
0.757861 -0.0416857 0.0 
0.83681 0.0363318 0.0 
0.0349689 0.000167277 0.0 
1.0643 -0.080026 0.0 
0 0 0.0 
0.0299432 -0.0140446 0.0 
0.456127 0.0116734 0.0 
0.581483 0.0822526 0.0 
0.197958 -0.293229 0.0 
0.151928 0.00852149 0.0 
0.00392667 -0.000416423 0.0 
0.688678 0.287889 0.0 
0.343692 0.0153451 0.0 
0.0441045 -0.00329009 0.0 
1.0077 -0.00945641 0.0 
0.732286 0.333818 0.0 
0.0960926 -0.011203 0.0 
0.460977 0.0247242 0.0 
0.559874 0.144889 0.0 
1e-307 1e-307 0.0 
-9.03337e-296 6.70313e-297 0.0 
0 0 0.0 
0 0 0.0 
0 0 0.0 
1.06235 -0.192554 0.0 
0 0 0.0 
1.01018 0.00194471 0.0 
0 0 0.0 
0.184447 0.0212555 0.0 
0.149414 -0.0212801 0.0 
0.0845294 0.0169111 0.0 
1.0054 0 0.0 
0.222687 0.0261586 0.0 
0.804184 0.165617 0.0 
1 0 0.0 
1.01502 0.00816434 0.0 
1.01729 -0.00672184 0.0 
0.761769 0.106682 0.0 
0.00518628 0.00059034 0.0 
0.24991 -0.0192236 0.0 
1.00853 -0.000755282 0.0 
0.0202532 0.000467558 0.0 
0.369349 0.0272948 0.0 
0.0200663 -0.00549906 0.0 
0.0879635 0.00470582 0.0 
1.06059 -0.227587 0.0 
1.00129 -0.00226676 0.0 
1.09331 0.185341 0.0 
0.983185 -0.0181763 0.0 
0.427861 -0.00275797 0.0 
2.62866e-65 -2.32058e-66 0.0 
1.01893 -0.0780275 0.0 
3.03119e-05 3.44373e-06 0.0 
0.678872 0.0263771 0.0 
0.753872 -0.101886 0.0 
1.05457 -0.134292 0.0 
0.825627 0.225474 0.0 
0.707588 0.0975265 0.0 
3.72077e-07 -1.52976e-08 0.0 
0 0 0.0 
0.510181 0.0666727 0.0 
0 0 0.0 
0.231316 -0.102652 0.0 
0.396581 -0.0103902 0.0 
0.283841 0.0480197 0.0 
0.00938291 0.00051885 0.0 
0.371101 0.0475951 0.0 
0 0 0.0 
0.519615 -0.018437 0.0 
0.797902 -0.1051 0.0 
0.516422 -0.0239623 0.0 
0.743111 -0.13399 0.0 
0.00486345 0.000734815 0.0 
0.0695179 -0.00656743 0.0 
0.44698 0.0407349 0.0 
1.00038 -0.00346806 0.0 
0 0 0.0 
0.72045 -0.111337 0.0 
0.923024 -0.266186 0.0 
0.775748 -0.089921 0.0 
1.06974 0.118441 0.0 
0 0 0.0 
0.915683 -0.131289 0.0 
0.469505 -0.0373139 0.0 
0.0659244 0.0011359 0.0 
0.00579633 0.000139398 0.0 
0.778412 0.264261 0.0 
1.00446 -0.000519511 0.0 
0.507826 0.0486058 0.0 
0.0647385 -0.0177097 0.0 
0 0 0.0 
0.662551 0.156794 0.0 
0 0 0.0 
1.00793 -0.00166811 0.0 
0.218476 -0.00208627 0.0 
1.06957 0.191826 0.0 
1.10825 0.1685 0.0 
0.724978 0.122866 0.0 
0 0 0.0 
0.165294 -0.0142052 0.0 
0.35554 -0.00303047 0.0 
0.879308 -0.0349412 0.0 
0.674362 0.101013 0.0 
0.722567 0.157557 0.0 
0.91934 -0.19437 0.0 
0 0 0.0 
0.310038 -0.00122185 0.0 
0.353225 0.169327 0.0 
0.934485 -0.0575895 0.0 
0.793553 -0.00934966 0.0 
0.423604 0.00282566 0.0 
0.61137 -0.0207065 0.0 
1.00272 -0.0460446 0.0 
0.0222831 0.000984011 0.0 
0 0 0.0 
0 0 0.0 
0.00845365 -0.0010072 0.0 
1.00207 0.00156538 0.0 
0.532614 0.0153833 0.0 
0 0 0.0 
0.736973 -0.0380919 0.0 
0.999918 0.0025947 0.0 
0.0175932 -0.00125233 0.0 
1.02461 -0.00468638 0.0 
0.0797736 -0.0141006 0.0 
0.0236683 -0.00489111 0.0 
0.763124 0.329449 0.0 
1.00001 -0.000633137 0.0 
0.00595104 0.000666501 0.0 
0.0418058 0.000548509 0.0 
0.999323 0.000839544 0.0 
0 0 0.0 
0.108922 -0.00130057 0.0 
1.00793 0 0.0 
0.40567 -0.0274241 0.0 
0.992971 -0.00152707 0.0 
0 0 0.0 
0 0 0.0 
0.00984891 0.000297562 0.0 
0.323575 0.00352792 0.0 
1.05455 -0.249302 0.0 
8.53781e-07 7.48165e-10 0.0 
0.0092072 5.75916e-05 0.0 
0.610733 0.305128 0.0 
0.185693 -0.0059319 0.0 
1.00837 0.00119842 0.0 
0.0894935 -0.00949519 0.0 
0.999884 0.00115004 0.0 
0.00660177 0.000135118 0.0 
0.00704834 0.000651842 0.0 
1.00114 0.000801746 0.0 
0.946724 -0.0526457 0.0 
1.01133 -0.00641568 0.0 
0.135626 0.00568387 0.0 
0.215354 0.0105556 0.0 
0.446182 0.0288551 0.0 
0.0937915 -0.00782392 0.0 
0 0 0.0 
2.84649e-167 -1.44219e-168 0.0 
1.00048 -0.000447842 0.0 
0.208237 0.015835 0.0 
0.871583 -0.281958 0.0 
1.00193 -0.000355448 0.0 
0 0 0.0 
1.0023 -0.00115855 0.0 
0.00202381 0.000180459 0.0 
0.550525 -0.0105244 0.0 
1.00793 -0.000530024 0.0 
0.160843 -0.00288063 0.0 
6.25693e-05 -9.17728e-06 0.0 
0.60484 0.337684 0.0 
0.565106 0.036332 0.0 
0.746978 -0.0512926 0.0 
1.0024 0.000669532 0.0 
0.00799782 -5.176e-05 0.0 
0.358317 0.183728 0.0 
1.01121 0.0127171 0.0 
0.478951 -0.445027 0.0 
1.01185 -0.0455636 0.0 
0.772024 -0.0832972 0.0 
0.791616 -0.0602307 0.0 
0.493991 -0.100213 0.0 
0.0174103 -0.0384692 0.0 
0.22734 0.00235271 0.0 
0.0358272 -0.00172949 0.0 
1.08407 -0.184438 0.0 
0.0456782 -0.00705788 0.0 
0.999946 0.000366983 0.0 
0.398604 -0.0305637 0.0 
0.939884 0.0766055 0.0 
0.00804163 -0.000848721 0.0 
0.460362 -0.0129555 0.0 
1.06015 -0.0375066 0.0 
0.378739 -0.00660249 0.0 
0.000923584 1.50704e-05 0.0 
0.39572 0.0227799 0.0 
0.264025 -0.0234921 0.0 
0.007783 0.000563927 0.0 
0.806271 0.251492 0.0 
1.00702 -0.00558959 0.0 
0.511679 -0.000275548 0.0 
1.00959 0.101138 0.0 
0.46424 -0.00576071 0.0 
9.09709e-33 -4.21493e-34 0.0 
1.08447 0.205899 0.0 
0.593855 -0.345166 0.0 
0.868975 -0.097528 0.0 
0.0391167 0.000414305 0.0 
0.992632 -0.0013808 0.0 
0.683006 0.013418 0.0 
0.221939 -0.0167524 0.0 
0 0 0.0 
0.11139 -0.000801656 0.0 
1.00004 -0.000131923 0.0 
1e-307 1e-307 0.0 
0.877434 0.171778 0.0 
0.774293 -0.0151788 0.0 
-2.79029e-189 2.79796e-190 0.0 
1.90031e-05 1.63391e-07 0.0 
0.867714 0.0333696 0.0 
1.063 -0.10364 0.0 
0.901582 -0.01052 0.0 
1.00128 0.000607169 0.0 
1.0082 -0.000447457 0.0 
-1.35689e-268 -1.56942e-269 0.0 
0.0279239 -0.00135225 0.0 
0.843668 -0.00823063 0.0 
0.0147149 -0.00262245 0.0 
0.128908 0.0148832 0.0 
0 0 0.0 
0.000112523 1.19898e-05 0.0 
0.639503 0.0897792 0.0 
1.00248 0.00171043 0.0 
1.01526 -0.00518902 0.0 
0.812417 0.0788255 0.0 
0.122183 0.0114894 0.0 
0.04932 -0.117232 0.0 
0.389666 0.0347511 0.0 
0 0 0.0 
0.26826 -0.0296211 0.0 
0.0316794 -0.00179683 0.0 
0.0538671 -0.00186648 0.0 
0.00209072 7.94094e-05 0.0 
-1.23748e-144 1.2245e-145 0.0 
1.00907 -0.00824202 0.0 
0.00075412 0.00010615 0.0 
0 0 0.0 
1.01027 0.00249362 0.0 
1.00365 0.000404823 0.0 
0.743192 -0.0647105 0.0 
0.103202 0.0218612 0.0 
0.00149975 -0.000125795 0.0 
0.0998291 0.0109453 0.0 
0.312067 0.267391 0.0 
0.999718 8.25826e-07 0.0 
0.01308 0.000394426 0.0 
0.80176 -0.120396 0.0 
0 0 0.0 
1.00852 -0.00872002 0.0 
0.792214 0.343678 0.0 
0.00752422 0.000525507 0.0 
0.00904867 0.000854072 0.0 
0.585561 0.0714832 0.0 
0.474995 0.0421194 0.0 
0.965854 0.0733755 0.0 
1.0081 -0.000239615 0.0 
0.00161434 0.000139614 0.0 
0.63078 -0.0745657 0.0 
0.00620799 -0.0100657 0.0 
0.608849 0.317351 0.0 
0.0172053 0.00125734 0.0 
0.506256 0.038247 0.0 
0.520794 0.0821808 0.0 
1.02266 -0.185098 0.0 
0.00672613 -0.000777716 0.0 
0 0 0.0 
1.01057 0.00506015 0.0 
0.653296 0.0603335 0.0 
0 0 0.0 
0 0 0.0 
0.0073173 0.000541902 0.0 
1.03458 0.0179459 0.0 
1.03334 -0.0387717 0.0 
0 0 0.0 
1.00461 -0.00193221 0.0 
0.993654 0.0531785 0.0 
0 0 0.0 
1.00776 0.000498363 0.0 
1.00016 -0.00468105 0.0 
1.00693 0.00745952 0.0 
0.186394 -0.0188761 0.0 
4.66845e-100 -2.91328e-101 0.0 
0.120067 -0.0197098 0.0 
1.01327 -0.00860848 0.0 
0 0 0.0 
0 0 0.0 
0 0 0.0 
0.038833 -0.00255476 0.0 
1.00295 0 0.0 
8.89528e-115 7.03935e-116 0.0 
0 0 0.0 
0.182267 0.0241869 0.0 
1.01042 0.00281377 0.0 
1.02886 0.0292299 0.0 
0.801276 -0.139978 0.0 
0.000185212 1.48792e-05 0.0 
0.162016 -0.0166341 0.0 
0.000219858 1.66619e-05 0.0 
0 0 0.0 
1.02282 -0.0112564 0.0 
0.011398 0.000871659 0.0 
0.354878 -0.0332937 0.0 
0.0970673 -0.00713235 0.0 
0.0115984 0.000466052 0.0 
0.760552 0.199 0.0 
0.00538138 0.000336464 0.0 
1.0034 -0.000708693 0.0 
1.83062e-90 1.22137e-90 0.0 
0.000156763 -8.92113e-06 0.0 
0.00901134 0.000603507 0.0 
1.0007 0.000349475 0.0 
0.00531118 6.07772e-05 0.0 
0.590435 0.0590966 0.0 
0 0 0.0 
0.355761 0.00368287 0.0 
0.177662 -0.0436023 0.0 
0.00302132 0.000113092 0.0 
1.08621 -0.166341 0.0 
0.00999446 -0.000877439 0.0 
0.999715 -1.18396e-05 0.0 
-5.11907e-70 5.90415e-71 0.0 
0.0147516 0.00120294 0.0 
1.00358 0.00396283 0.0 
1.00032 0.000393907 0.0 
1.01295 -0.194245 0.0 
0 0 0.0 
1.13614e-05 2.82933e-07 0.0 
0.0330935 0.00571305 0.0 
0.010745 0.000240497 0.0 
7.30458e-10 1.4355e-10 0.0 
0.355186 -0.0268112 0.0 
0.400215 0.0342884 0.0 
0.00860152 -0.00069521 0.0 
0 0 0.0 
1.01438 -0.00750558 0.0 
0.504796 0.0113195 0.0 
0.982246 -0.0253855 0.0 
0 0 0.0 
0.79448 0.0104112 0.0 
0.707706 -0.376476 0.0 
0.00512301 0.000250964 0.0 
1.07437 -0.0983563 0.0 
0.00377085 -0.000613147 0.0 
1.00912 0.00206294 0.0 
1.05605 0.00357845 0.0 
0.875513 0.116061 0.0 
0.272191 0.0262415 0.0 
0.0948327 -0.149768 0.0 
0.656465 -0.2844 0.0 
0 0 0.0 
1.01013 -0.00338402 0.0 
0.00861797 7.90769e-05 0.0 
0.0313723 0.00237089 0.0 
0.46746 0.0363238 0.0 
0.019492 0.000554237 0.0 
0.999532 -1.47785e-05 0.0 
1.00045 0.000340896 0.0 
0.878855 -0.132441 0.0 
0.715283 -0.265935 0.0 
1.00002 0.000561469 0.0 
0.166744 0.0444595 0.0 
0.99972 -0.000116597 0.0 
-1.29335e-290 9.59721e-292 0.0 
1.00922 0.000316545 0.0 
0.310438 0.0217347 0.0 
0.253712 -0.000400043 0.0 
0 0 0.0 
0.0135652 0.000257187 0.0 
0.717602 0.338636 0.0 
0.525251 -0.0572478 0.0 
0.991977 0.00246071 0.0 
0.648899 0.257999 0.0 
0.712971 0.272472 0.0 
0.441515 0.0100372 0.0 
0 0 0.0 
0.206503 0.0110747 0.0 
0.999995 -0.000262407 0.0 
0.843499 -0.0927708 0.0 
0 0 0.0 
0.768982 0.121028 0.0 
0.493038 0.0960002 0.0 
0.0691515 0.0135938 0.0 
0.260741 -0.0394672 0.0 
0 0 0.0 
0.317235 -0.00526208 0.0 
1.00801 0.00735428 0.0 
0.456595 0.0252756 0.0 
0.00376667 -0.000592347 0.0 
0.677878 0.243114 0.0 
0 0 0.0 
0.100936 -0.00104161 0.0 
1.00109 0 0.0 
1.10532 0.130432 0.0 
1.00802 0.0020406 0.0 
0.710468 0.376807 0.0 
1.00419 0.00328864 0.0 
0.858893 0.153324 0.0 
0.0141684 0.000646429 0.0 
0 0 0.0 
0.570037 -0.27169 0.0 
0 0 0.0 
7.71978e-224 -3.6829e-224 0.0 
0.729318 0.309691 0.0 
1.00034 -0.000255323 0.0 
0.48187 -0.0253154 0.0 
0.227161 0.00875537 0.0 
0.265856 -0.00631851 0.0 
0.0515463 0.00450652 0.0 
0.839666 0.299928 0.0 
0.607767 -0.290284 0.0 
0.026321 0.000508543 0.0 
1.01998 -0.251784 0.0 
0.00645078 -0.000959424 0.0 
1.00914 -0.00822425 0.0 
0 0 0.0 
1.00728 0.00185636 0.0 
0.0125147 0.000133489 0.0 
1.0018 -0.0026174 0.0 
0.554126 -0.0634982 0.0 
0.537772 0.0995113 0.0 
0.999931 -0.000229149 0.0 
0 0 0.0 
0.106151 0.019291 0.0 
0 0 0.0 
0.389681 -0.0399783 0.0 
0.424953 -0.122117 0.0 
0.873989 0.0873933 0.0 
0 0 0.0 
0.00583024 0.000427411 0.0 
0.580478 -0.427687 0.0 
0.305639 0.0285804 0.0 
1.0003 0 0.0 
0.0784124 -0.0193434 0.0 
0.449171 -0.0988976 0.0 
0.541607 -0.0324894 0.0 
0.0150011 -0.00404479 0.0 
0.539919 0.00282831 0.0 
0.0374021 0.00180358 0.0 
1.00783 0.00450869 0.0 
0.723591 0.0544805 0.0 
0.495669 0.108025 0.0 
0.00530789 -0.000882402 0.0 
0.0673446 -0.00127747 0.0 
0.782683 0.367817 0.0 
0.83663 0.138963 0.0 
1.00245 0.00126803 0.0 
0.00720385 0.000297258 0.0 
0.00190832 -0.000582899 0.0 
2.0255e-07 -1.83189e-08 0.0 
0.0122123 -0.00127231 0.0 
0 0 0.0 
0 0 0.0 
0.47177 -0.0833783 0.0 
0.999724 -2.04279e-05 0.0 
1.08855 0.123214 0.0 
0.460743 -0.04327 0.0 
1 0 0.0 
-4.70929e-22 -6.0071e-22 0.0 
0.760716 0.373529 0.0 
0 0 0.0 
0 0 0.0 
1.00538 0 0.0 
-2.99363e-21 4.2881e-22 0.0 
0.998863 0.000391549 0.0 
0.233073 -0.00806856 0.0 
1.00911 0 0.0 
0.750063 0.278646 0.0 
0 0 0.0 
0.99972 2.00857e-05 0.0 
0.206389 -0.0197838 0.0 
1.01814 -0.00400866 0.0 
0.992332 -0.00865369 0.0 
0.151406 0.0180349 0.0 
5.39605e-07 4.8692e-08 0.0 
1.00438 0 0.0 
0.23519 0.00627143 0.0 
0.790445 0.320233 0.0 
0.00997402 -0.00120332 0.0 
0 0 0.0 
0.998359 3.98136e-05 0.0 
2.65177e-44 1.83198e-45 0.0 
0.490735 -0.0494768 0.0 
0.770169 0.365806 0.0 
0.74785 0.0646156 0.0 
1.02604 -0.289627 0.0 
1.00088 0.00236388 0.0 
0.865177 0.355374 0.0 
1.0721 0.176625 0.0 
0.4906 -0.171041 0.0 
0.816557 0.357658 0.0 
0.320982 0.0633239 0.0 
1.00876 -0.00648952 0.0 
0.943271 -0.335089 0.0 
0.573409 -0.0610719 0.0 
0.745963 -0.0904782 0.0 
0.806046 -0.0814802 0.0 
0.00428089 -0.000558069 0.0 
0.0505715 0.00584255 0.0 
0.144515 -0.019156 0.0 
0.325453 0.0448206 0.0 
1.05207 0.102693 0.0 
0.966985 -0.0248304 0.0 
0 0 0.0 
0.120823 -0.224729 0.0 
0.292587 0.00227101 0.0 
0.121895 0.010019 0.0 
0.94494 -0.279137 0.0 
0.0649564 -0.120485 0.0 
0.0150663 0.000680929 0.0 
0.850568 -0.200815 0.0 
0.0470775 -0.00997369 0.0 
-4.81755e-20 2.72004e-21 0.0 
0.584625 0.000735683 0.0 
1.37695e-07 2.35816e-08 0.0 
0.412902 -0.0045126 0.0 
0.810842 0.128043 0.0 
0 0 0.0 
0.130886 0.00866706 0.0 
0.877502 -0.108211 0.0 
0.453989 -0.0475649 0.0 
1.0083 9.26184e-05 0.0 
-5.16661e-106 2.51468e-107 0.0 
0.864653 0.06679 0.0 
0.999053 -0.0165407 0.0 
0.781104 0.137592 0.0 
0.129715 0.0196656 0.0 
0.905248 0.0285106 0.0 
0.933443 -0.0607014 0.0 
0 0 0.0 
0.279508 0.0196741 0.0 
0.800473 0.0744133 0.0 
1.00097 0 0.0 
0.00715832 0.00049915 0.0 
0.695587 -0.446968 0.0 
0.768328 0.0886824 0.0 
0.013372 0.0010475 0.0 
1.00265 0 0.0 
0 0 0.0 
0.216503 -0.00233007 0.0 
0.345697 -0.0228063 0.0 
0.999695 6.39286e-05 0.0 
0.771206 -0.288834 0.0 
0.866668 0.0972686 0.0 
0.194879 -0.00890682 0.0 
1.00282 -0.000627209 0.0 
0.716128 0.359458 0.0 
0.403843 -0.00292453 0.0 
0.00234783 -0.000183941 0.0 
0.0208325 0.000471227 0.0 
0.173426 0.0129347 0.0 
0.759002 -0.104611 0.0 
0.0754616 -0.0105189 0.0 
0.86002 -0.142513 0.0 
0.555443 0.280941 0.0 
0.76362 0.306798 0.0 
0.592096 0.0824675 0.0 
0.0440761 -0.0166052 0.0 
0.252307 -0.0128787 0.0 
1.05083 0.0174872 0.0 
0.026746 -0.0012579 0.0 
0.199517 -0.0209667 0.0 
1.00282 0.00108791 0.0 
0 0 0.0 
0.18458 -0.00723024 0.0 
2.03702e-05 1.7667e-06 0.0 
-3.11244e-198 -3.32438e-201 0.0 
0.999575 0.000147092 0.0 
0.327058 -0.021572 0.0 
0.181252 0.0119146 0.0 
0.863092 0.258826 0.0 
0.39075 -0.018603 0.0 
0 0 0.0 
0 0 0.0 
1.29447e-06 6.72641e-07 0.0 
0.23389 -0.000652921 0.0 
1.0807 -0.0495535 0.0 
7.43078e-30 2.59729e-30 0.0 
1.02944 -0.0184647 0.0 
0 0 0.0 
0.891952 -0.299562 0.0 
0.020785 0.00107024 0.0 
0.967532 0.305822 0.0 
0.86544 -0.0524143 0.0 
-4.29728e-25 -1.96597e-25 0.0 
0.278007 -0.0322362 0.0 
1.00808 0 0.0 
0 0 0.0 
1.01002 0.00567532 0.0 
0.00760533 0.000571743 0.0 
1.00001 -0.000285824 0.0 
0 0 0.0 
0.469635 -0.00967868 0.0 
0.998707 0.000656058 0.0 
5.82001e-07 -6.8208e-08 0.0 
1.00682 -0.265721 0.0 
1.00967 0.00529756 0.0 
0.0144548 0.000392343 0.0 
0.00365712 0.000367058 0.0 
1.00051 0.00515926 0.0 
1.01851 -0.301491 0.0 
0.313472 -0.0131009 0.0 
0.941501 -0.100758 0.0 
0.183655 -0.237847 0.0 
1.01174 -0.00750205 0.0 
0.355033 -0.00395828 0.0 
1.01209 -0.294289 0.0 
0.753817 0.220935 0.0 
0.237771 0.0189494 0.0 
0.00959148 0.000159937 0.0 
0.0857779 0.0121744 0.0 
1.01859 0.0212448 0.0 
0.0743868 1.49966e-05 0.0 
0.0100156 0.000829929 0.0 
0.0102973 0.000581085 0.0 
0 0 0.0 
0.999514 -0.000200364 0.0 
0.209375 -0.000989317 0.0 
0 0 0.0 
0.320419 0.0764777 0.0 
1.09787 -0.104403 0.0 
0 0 0.0 
0.130041 -0.00926308 0.0 
0.999414 0.00012701 0.0 
1.64906e-06 2.67536e-06 0.0 
1.00824 -0.000790863 0.0 
1.01036 0.256179 0.0 
0.726561 -0.0647593 0.0 
0.319982 -0.0628346 0.0 
1.06168 0.219921 0.0 
0.999805 0.00124124 0.0 
1.00478 0.0171718 0.0 
1.05577 0.0955188 0.0 
0.0332922 0.000495859 0.0 
0.110967 -0.00834321 0.0 
0.194298 -0.00853652 0.0 
1.01024 -0.00160363 0.0 
0.608234 -0.462603 0.0 
0.258625 -0.00191884 0.0 
0.00497712 0.000304972 0.0 
0.72824 0.192634 0.0 
0.14429 -0.0570301 0.0 
0.679371 0.200784 0.0 
1.00804 0 0.0 
0.0370452 0.0047717 0.0 
0.99972 4.46307e-06 0.0 
0 0 0.0 
0.590277 -0.226519 0.0 
1.00173 0.0131206 0.0 
1.01 -0.00918126 0.0 
1.00605 -0.00226128 0.0 
0.0148554 -0.00823468 0.0 
1.03632 -0.272602 0.0 
1.00815 -0.00281202 0.0 
1.01025 0.0037452 0.0 
0 0 0.0 
0.583316 0.345109 0.0 
0.0369804 -0.0152212 0.0 
0.0117993 -0.00135128 0.0 
9.08177e-56 -1.1783e-56 0.0 
0.0131082 -6.53217e-05 0.0 
0.00615587 0.000950925 0.0 
0.447569 -0.0101067 0.0 
0.68606 -0.180618 0.0 
0.00242905 -0.000122224 0.0 
0.223296 -0.00287489 0.0 
0.640915 0.342618 0.0 
1.00998 -0.000540595 0.0 
1.15236e-10 -2.11119e-12 0.0 
1.00785 -0.00162323 0.0 
7.62998e-13 -4.64473e-13 0.0 
0.304099 0.0393912 0.0 
1.00448 -0.00737851 0.0 
0.585388 -0.0715287 0.0 
0.0184275 -0.00140445 0.0 
0.142554 -0.03679 0.0 
1.09589 -0.12314 0.0 
0.00522443 -0.000450842 0.0 
3.88929e-06 2.02908e-07 0.0 
0.0115899 0.000639893 0.0 
0 0 0.0 
0.9976 0.0065526 0.0 
0.883331 0.144636 0.0 
0.097121 0.0103254 0.0 
1.01045 -0.00713345 0.0 
0.051135 0.0303678 0.0 
0 0 0.0 
1.05477 0.0106341 0.0 
1.07357 0.199295 0.0 
0.0931296 -0.0106075 0.0 
1.00056 0 0.0 
1.0942 -0.1003 0.0 
0.941864 -0.359756 0.0 
-5.74556e-22 1.59806e-23 0.0 
0.0909959 0.0607102 0.0 
0.0185025 -0.00509358 0.0 
0 0 0.0 
0.0491815 -0.00324205 0.0 
0 0 0.0 
0 0 0.0 
1.00699 0.0056478 0.0 
0.00227817 -0.000205166 0.0 
0.998603 -0.00245802 0.0 
1.00283 -0.0116824 0.0 
1.00516 -0.00803669 0.0 
0.00951328 0.00056513 0.0 
0.0893555 -0.00931597 0.0 
0.653358 0.27961 0.0 
0.999897 4.29078e-05 0.0 