<VTKFile type="UnstructuredGrid" version="0.1" byte_order="LittleEndian">
  <UnstructuredGrid>
    <Piece NumberOfPoints="12755" NumberOfCells="25350">
      <Points>
        <DataArray type = "Float64" NumberOfComponents="3" format="ascii">
0 0 0.0 
14 0 0.0 
14 8 0.0 
0 8 0.0 
4.16782 4.09801 0.0 
12.6312 6.01289 0.0 
5.24241 4.03072 0.0 
4.54071 3.92552 0.0 
4.09208 3.95602 0.0 
4.00228 3.99255 0.0 
4.9392 4.00371 0.0 
3.96554 4.00011 0.0 
4.04201 4.03325 0.0 
3.99176 3.9942 0.0 
12.5949 1.78564 0.0 
0.293813 2.30388 0.0 
3.92276 3.95351 0.0 
4.01323 3.99894 0.0 
4.51303 4.06298 0.0 
4.25007 4.10489 0.0 
4.17926 4.05465 0.0 
4.82786 4.02856 0.0 
4.30478 3.96866 0.0 
4.0106 4.0844 0.0 
5.00445 4.05585 0.0 
1.89538 4.05084 0.0 
4.27584 4.0502 0.0 
4.96284 4.02182 0.0 
4.36723 4.05555 0.0 
9.51452 2.57828 0.0 
6.92546 4.83461 0.0 
4.24989 4.06896 0.0 
3.94615 3.96355 0.0 
4.17759 3.97818 0.0 
4.09533 4.03459 0.0 
4.00922 3.99881 0.0 
4.19874 3.93672 0.0 
4.2041 4.03861 0.0 
10.6503 2.62772 0.0 
4.8836 4.02008 0.0 
4.11094 4.03801 0.0 
4.01924 3.99343 0.0 
8.11174 7.52898 0.0 
8.92204 1.29469 0.0 
10.4837 4.60685 0.0 
4.22584 4.06787 0.0 
4.36023 4.05917 0.0 
4.01706 3.99618 0.0 
4.02815 4.04832 0.0 
4.04163 4.00806 0.0 
4.74476 4.04048 0.0 
4.06495 3.99171 0.0 
4.77843 4.03728 0.0 
4.57966 3.97845 0.0 
4.99839 7.33977 0.0 
4.18352 4.30234 0.0 
4.17819 3.95311 0.0 
1.52849 1.81588 0.0 
4.61386 4.06549 0.0 
4.01647 3.99236 0.0 
3.74406 0.838829 0.0 
4.97466 4.02609 0.0 
4.13421 3.96765 0.0 
4.0339 4.05256 0.0 
4.66775 3.98302 0.0 
4.27006 4.09617 0.0 
4.10135 4.04847 0.0 
4.41384 3.97186 0.0 
3.98196 3.98783 0.0 
4.49479 4.06397 0.0 
4.01974 4.01804 0.0 
5.00785 4.00312 0.0 
10.8833 7.73481 0.0 
14 6.11123 0.0 
4.36153 3.96961 0.0 
4.0139 4.00409 0.0 
3.96293 3.99513 0.0 
4.04956 3.95606 0.0 
4.02169 4.00411 0.0 
4.08468 3.97131 0.0 
4.17149 3.94913 0.0 
4.54281 6.58029 0.0 
3.95737 3.94689 0.0 
3.99922 3.99464 0.0 
5.03684 4.01469 0.0 
9.17362 1.43142 0.0 
5.0735 3.99042 0.0 
4.64811 3.98178 0.0 
4.21046 4.06795 0.0 
14 5.21618 0.0 
4.75055 4.03999 0.0 
4.53677 3.97743 0.0 
4.80013 4.01216 0.0 
4.28749 4.07809 0.0 
4.12613 4.07084 0.0 
14 0.627351 0.0 
5.00991 4.10716 0.0 
4.44332 4.06719 0.0 
4.08493 4.0641 0.0 
5.40745 6.35658 0.0 
4.09546 4.05534 0.0 
4.35343 3.94951 0.0 
4.36046 3.97154 0.0 
4.00157 4.00798 0.0 
3.05349 4.57182 0.0 
4.21818 4.06708 0.0 
4.13931 3.99003 0.0 
4.56463 4.13335 0.0 
4.37798 8 0.0 
4.08373 4.05666 0.0 
4.00126 4.01985 0.0 
4.39096 4.07638 0.0 
4.37176 0.79352 0.0 
4.27852 0 0.0 
5.04845 4.04311 0.0 
10.4276 7.7303 0.0 
4.39701 4.08371 0.0 
10.709 1.41645 0.0 
4.13434 4.07811 0.0 
4.2503 3.99239 0.0 
13.0904 5.11128 0.0 
4.14891 3.96184 0.0 
4.22469 3.98361 0.0 
4.05291 4.03639 0.0 
4.59269 3.91266 0.0 
4.35017 3.94589 0.0 
11.4001 1.66131 0.0 
4.2185 3.96697 0.0 
4.67369 3.98331 0.0 
5.52872 3.97338 0.0 
4.1741 4.07586 0.0 
4.97991 4.0048 0.0 
4.35246 4.07133 0.0 
4.87677 3.9924 0.0 
9.02814 5.21286 0.0 
9.66889 1.90448 0.0 
4.08889 4.05692 0.0 
3.91267 2.38613 0.0 
4.02873 4.0411 0.0 
4.88146 4.04087 0.0 
11.233 0.251178 0.0 
4.25219 3.97876 0.0 
4.0826 3.93583 0.0 
4.12124 3.98374 0.0 
4.09289 4.07118 0.0 
5.01074 4.00405 0.0 
4.55606 4.11239 0.0 
4.40117 3.94133 0.0 
4.2748 4.1064 0.0 
4.99458 4.03862 0.0 
4.06171 3.99351 0.0 
4.02244 4.02798 0.0 
3.66812 4.19524 0.0 
4.12635 4.07409 0.0 
0 1.4212 0.0 
4.25778 4.0794 0.0 
3.98149 4.06651 0.0 
3.98563 4.05111 0.0 
4.4538 3.97287 0.0 
4.62956 3.98124 0.0 
5.01331 3.98969 0.0 
5.00129 3.99352 0.0 
4.98067 3.99877 0.0 
4.90346 4.01814 0.0 
4.0644 3.93891 0.0 
8.94757 8 0.0 
4.41647 4.05664 0.0 
4.12613 3.92733 0.0 
3.97745 3.97252 0.0 
3.96425 4.09305 0.0 
4.19206 3.91938 0.0 
5.81702 3.84848 0.0 
4.3172 4.07047 0.0 
4.09641 3.95124 0.0 
3.95729 3.99122 0.0 
3.99442 3.99468 0.0 
3.96293 4.03138 0.0 
4.99041 4.00381 0.0 
6.23853 5.94618 0.0 
4.23532 3.95103 0.0 
4.15667 4.04972 0.0 
3.99252 4.00665 0.0 
4.00436 3.99817 0.0 
4.17636 4.06982 0.0 
4.00183 4.00599 0.0 
4.34676 4.05409 0.0 
4.06608 3.97409 0.0 
3.83943 5.54804 0.0 
6.3702 1.65344 0.0 
13.4409 6.96746 0.0 
4.23165 4.07938 0.0 
4.04691 4.04701 0.0 
3.95778 3.98461 0.0 
3.98492 3.9175 0.0 
4.19057 4.05281 0.0 
4.10081 3.94382 0.0 
4.05695 3.98888 0.0 
5.06712 4.12398 0.0 
6.34393 4.1576 0.0 
3.99651 4.05409 0.0 
4.05465 4.0262 0.0 
4.20338 3.96703 0.0 
5.00368 4.02219 0.0 
4.00042 4.00685 0.0 
3.9771 4.03148 0.0 
4.06339 3.97663 0.0 
4.11644 4.11236 0.0 
2.23382 4.0039 0.0 
4.15561 4.10177 0.0 
4.18309 4.12442 0.0 
3.96476 4.03852 0.0 
4.33194 3.94449 0.0 
3.96822 4.02719 0.0 
3.97233 4.04194 0.0 
4.06075 3.96837 0.0 
4.24284 4.0739 0.0 
4.31023 4.04299 0.0 
4.20876 3.92492 0.0 
3.92251 4.00785 0.0 
3.97524 3.96314 0.0 
2.07932 0.548086 0.0 
4.03026 3.99922 0.0 
5.15491 3.95658 0.0 
4.72219 4.04175 0.0 
4.0415 3.95739 0.0 
4.97261 3.97821 0.0 
4.92205 4.00657 0.0 
3.94545 3.9996 0.0 
13.4746 3.05999 0.0 
4.08702 4.02182 0.0 
4.00756 4.02287 0.0 
4.00612 4.04547 0.0 
5.0401 4.02083 0.0 
4.98371 4.01321 0.0 
6.86406 0 0.0 
4.13819 4.07615 0.0 
4.27457 4.06341 0.0 
4.81746 3.98966 0.0 
4.66464 3.98259 0.0 
10.3864 0.53398 0.0 
4.0017 4.00679 0.0 
10.6014 4.85338 0.0 
5.21399 3.97984 0.0 
4.5817 3.97878 0.0 
4.05428 3.94079 0.0 
9.70989 7.75915 0.0 
5.06965 4.00103 0.0 
4.02341 4.03456 0.0 
4.04876 0.862009 0.0 
4.52724 7.41561 0.0 
5.05919 4.01855 0.0 
1.85807 0.936226 0.0 
4.21942 4.06838 0.0 
4.22714 3.92146 0.0 
4.60701 3.95862 0.0 
5.05289 4.02468 0.0 
4.37377 3.94452 0.0 
12.1043 4.49991 0.0 
0.21007 0.866005 0.0 
6.63673 2.2505 0.0 
1.24078 0.550265 0.0 
9.10545 7.45594 0.0 
2.38032 0.204862 0.0 
4.4327 3.93882 0.0 
4.11851 4.05833 0.0 
4.1292 3.96941 0.0 
4.01517 4.03055 0.0 
4.60771 3.97964 0.0 
3.99882 3.99972 0.0 
7.15285 6.80318 0.0 
4.14337 4.03383 0.0 
4.9979 4.00507 0.0 
4.74459 4.03985 0.0 
3.99908 3.98836 0.0 
8.76112 4.31939 0.0 
4.12151 3.94609 0.0 
13.7847 1.06498 0.0 
4.45809 3.97247 0.0 
4.1766 6.89118 0.0 
4.21507 3.9482 0.0 
3.59446 4.13521 0.0 
4.97222 4.02124 0.0 
4.81854 3.78326 0.0 
4.27281 7.11782 0.0 
6.25452 4.08467 0.0 
1.24639 1.42137 0.0 
4.03122 3.93276 0.0 
4.00554 4.01669 0.0 
4.02448 3.98348 0.0 
9.83707 1.45219 0.0 
5.1327 4.04445 0.0 
4.47504 3.41671 0.0 
4.01382 3.9423 0.0 
4.3759 3.7844 0.0 
4.47779 4.09651 0.0 
4.50287 3.97491 0.0 
5.85061 4.74455 0.0 
4.03516 3.98763 0.0 
3.9901 3.98452 0.0 
4.12408 3.94161 0.0 
3.03682 4.32972 0.0 
6.62634 0.581976 0.0 
4.34962 4.12041 0.0 
4.08146 3.94143 0.0 
13.1884 3.13215 0.0 
4.38114 4.06409 0.0 
12.4528 5.8107 0.0 
4.22316 3.966 0.0 
4.1797 4.07872 0.0 
4.09333 3.97104 0.0 
0.480344 3.48127 0.0 
4.2661 4.06831 0.0 
3.98225 4.12152 0.0 
4.66181 4.08116 0.0 
6.34978 1.01595 0.0 
3.59386 3.60045 0.0 
13.2253 0 0.0 
4.46734 3.96049 0.0 
4.44989 3.973 0.0 
4.35811 3.96932 0.0 
4.77506 4.04442 0.0 
4.2489 4.09629 0.0 
5.06347 3.99507 0.0 
3.99486 4.0255 0.0 
4.2295 4.0772 0.0 
4.0037 4.00939 0.0 
5.08198 4.04957 0.0 
5.02947 4.00625 0.0 
4.10669 3.95257 0.0 
4.63498 4.21006 0.0 
3.98826 4.00843 0.0 
5.05417 4.01439 0.0 
4.20902 3.94092 0.0 
10.1297 3.18016 0.0 
3.20804 5.19935 0.0 
4.43842 4.06751 0.0 
0.213585 6.45379 0.0 
3.99883 4.01382 0.0 
4.04062 4.0139 0.0 
4.37163 4.10844 0.0 
4.46818 3.97373 0.0 
4.63973 4.05195 0.0 
4.36126 3.97079 0.0 
4.01165 4.04753 0.0 
4.08696 3.98637 0.0 
4.98255 4.03858 0.0 
4.23985 4.08128 0.0 
4.72219 3.98516 0.0 
4.13381 4.04659 0.0 
4.11235 3.97677 0.0 
4.84093 4.02755 0.0 
3.99752 4.02893 0.0 
4.01884 3.99521 0.0 
4.26259 4.0847 0.0 
3.98628 3.99582 0.0 
4.70114 4.04548 0.0 
9.8064 4.58182 0.0 
4.01324 3.98391 0.0 
3.88357 4.09673 0.0 
4.01204 4.00974 0.0 
4.9921 3.96662 0.0 
13.3214 3.63456 0.0 
4.36385 4.07324 0.0 
9.83744 7.23092 0.0 
8.1554 7.24604 0.0 
3.99877 4.00236 0.0 
4.00774 3.99043 0.0 
12.8838 1.66754 0.0 
4.14628 4.08279 0.0 
5.14861 6.42651 0.0 
4.5227 4.06277 0.0 
1.7783 0 0.0 
4.21966 3.95807 0.0 
4.19749 4.06505 0.0 
5.0218 3.98124 0.0 
4.19511 4.06513 0.0 
3.94615 4.05384 0.0 
4.0766 3.95386 0.0 
5.10311 4.0306 0.0 
4.08661 3.96915 0.0 
5.07095 2.11145 0.0 
4.11361 4.05031 0.0 
11.821 3.46845 0.0 
4.01347 4.02151 0.0 
3.98027 4.05285 0.0 
4.06115 4.03837 0.0 
13.1047 7.49614 0.0 
4.78012 3.98864 0.0 
4.1765 3.91284 0.0 
4.98917 3.99764 0.0 
4.22898 4.08419 0.0 
4.04077 3.99338 0.0 
7.05228 0.737507 0.0 
4.10356 3.92407 0.0 
4.08476 4.04363 0.0 
3.98163 4.03116 0.0 
7.30702 0.535617 0.0 
4.89756 4.04445 0.0 
3.96798 4.13307 0.0 
4.69903 3.98435 0.0 
9.12859 4.97555 0.0 
4.02882 4.00251 0.0 
4.36906 3.83456 0.0 
5.1379 4.02467 0.0 
5.18793 4.05304 0.0 
7.04106 1.21954 0.0 
4.08904 3.95395 0.0 
4.29726 4.11169 0.0 
4.2894 4.08496 0.0 
3.98111 4.00805 0.0 
3.99367 4.08183 0.0 
4.46827 4.06569 0.0 
3.99352 3.97666 0.0 
4.71873 4.04327 0.0 
4.02352 3.97115 0.0 
4.67002 3.84867 0.0 
13.0176 4.80953 0.0 
3.98468 3.9804 0.0 
4.27492 4.05293 0.0 
4.10308 3.95678 0.0 
5.09703 3.97429 0.0 
4.57173 3.95905 0.0 
3.98751 3.9874 0.0 
11.079 3.45194 0.0 
12.3354 6.04076 0.0 
12.8359 6.25575 0.0 
3.98206 3.97395 0.0 
12.9901 3.16776 0.0 
4.07946 3.97137 0.0 
4.00213 4.00745 0.0 
3.92181 4.23034 0.0 
4.37403 4.10184 0.0 
4.62267 4.05421 0.0 
5.52886 1.2432 0.0 
4.00375 4.03912 0.0 
12.0434 4.08978 0.0 
3.99121 4.03339 0.0 
3.99417 4.04189 0.0 
4.62792 4.05275 0.0 
7.78423 7.55642 0.0 
4.0094 4.01407 0.0 
4.34131 4.05656 0.0 
4.03504 3.95011 0.0 
8.79179 0 0.0 
4.19395 4.08176 0.0 
4.08941 4.04456 0.0 
4.11341 4.0492 0.0 
4.51208 3.93781 0.0 
4.73917 3.91275 0.0 
3.98918 4.03714 0.0 
4.99859 3.99735 0.0 
4.03833 4.0264 0.0 
4.01059 4.0357 0.0 
4.07058 3.96342 0.0 
4.57948 0 0.0 
4.09975 3.95651 0.0 
4.13306 4.06692 0.0 
4.00056 4.04248 0.0 
1.05155 0.371395 0.0 
5.35539 3.88763 0.0 
10.1868 5.07744 0.0 
3.9896 4.00463 0.0 
2.20772 4.95929 0.0 
3.98613 3.98439 0.0 
4.56365 4.05875 0.0 
4.0678 3.97329 0.0 
3.90166 4.02209 0.0 
4.16819 4.05495 0.0 
4.02428 4.00868 0.0 
4.97929 3.98438 0.0 
2.46283 1.41429 0.0 
5.00546 4.00308 0.0 
4.88828 3.99334 0.0 
[...]
<PointData>
  <DataArray type = "Float64" Name="Vitesse" NumberOfComponents="3" format="ascii">
1 0 0.0 
1.00333 0 0.0 
1.00064 0 0.0 
1 0 0.0 
1.02929 0.17288 0.0 
1.00308 -0.00417048 0.0 
0.247271 -0.0123701 0.0 
0.675034 0.00943675 0.0 
0.622608 -0.0818487 0.0 
0.157153 -0.199756 0.0 
6.80836e-58 -9.90532e-59 0.0 
0.645937 -0.0589859 0.0 
0.108652 0.042074 0.0 
0.393816 -0.293759 0.0 
1.00588 0.00260757 0.0 
0.999995 -0.000272103 0.0 
0.841515 -0.0929627 0.0 
0 0 0.0 
0.00650338 -2.44251e-05 0.0 
0.94819 0.0977323 0.0 
0 0 0.0 
7.51018e-05 -4.31666e-06 0.0 
0.00673431 0.000377723 0.0 
0.884342 0.244617 0.0 
0.27636 -0.0307894 0.0 
0.997239 0.000908907 0.0 
0 0 0.0 
0.0420199 -0.00618754 0.0 
0 0 0.0 
1.00846 0.00110897 0.0 
1.01085 -0.00503004 0.0 
0.0829648 0.0068304 0.0 
0.800714 -0.124708 0.0 
0 0 0.0 
0 0 0.0 
0 0 0.0 
0.754184 -0.040754 0.0 
0 0 0.0 
1.00805 0.000902211 0.0 
1.26517e-06 -1.41427e-07 0.0 
0 0 0.0 
0 0 0.0 
1.00802 -0.000454781 0.0 
1.00799 0.000601774 0.0 
1.00787 -0.00347866 0.0 
0.107602 0.00615643 0.0 
0 0 0.0 
0 0 0.0 
0.8351 0.359326 0.0 
1e-307 1e-307 0.0 
0.00193039 -0.000133811 0.0 
1e-307 1e-307 0.0 
0.00838324 -0.000969064 0.0 
0.00819951 0.00046536 0.0 
1.00942 0.000876547 0.0 
1.05524 0.0949445 0.0 
0.396261 -0.0157506 0.0 
1.00032 -0.00173569 0.0 
0.115333 -0.00877756 0.0 
0 0 0.0 
1.00534 -0.00213916 0.0 
0.066725 -0.0101249 0.0 
0.0337043 -0.000717248 0.0 
0.867883 0.349383 0.0 
0.0025044 0.000335961 0.0 
0.755847 0.0629828 0.0 
-1.02716e-43 -1.32179e-44 0.0 
0.00695184 0.000268955 0.0 
0.5904 -0.228158 0.0 
0.00502614 -0.000243641 0.0 
-1.14894e-211 -3.23379e-212 0.0 
0.0249857 -0.00482581 0.0 
1.00553 -0.000315415 0.0 
0.999613 -0.00293485 0.0 
0.0159195 1.84088e-05 0.0 
0 0 0.0 
0.670945 -0.0825662 0.0 
0.933651 -0.234555 0.0 
0 0 0.0 
2.8453e-05 -2.95243e-06 0.0 
0.521088 -0.0271654 0.0 
1.01064 0.00329902 0.0 
0.835347 -0.162828 0.0 
0.198723 -0.294046 0.0 
0.0620228 -0.00940135 0.0 
1.00795 0.000594679 0.0 
0.152971 0.0144768 0.0 
0.00578952 -2.03881e-05 0.0 
0.157451 0.0173901 0.0 
0.993495 -0.00484094 0.0 
0.00394188 -0.00042803 0.0 
4.31122e-22 3.98461e-23 0.0 
-4.36577e-209 3.37839e-210 0.0 
0.273351 0.0138875 0.0 
0.717044 0.143755 0.0 
1.00333 0.000867722 0.0 
0.737355 -0.0498656 0.0 
0.0117531 0.00037899 0.0 
0.824521 0.224782 0.0 
1.01274 0.000630397 0.0 
0.42605 0.106452 0.0 
0.347582 0.00382254 0.0 
3.65994e-34 9.30576e-36 0.0 
0.0510268 0.0620216 0.0 
0.99114 0.0110723 0.0 
0.103511 0.00868721 0.0 
1e-307 1e-307 0.0 
0.963459 -0.0108551 0.0 
1.00778 0 0.0 
0.609905 0.162219 0.0 
0.452407 0.336749 0.0 
0.15954 -0.0019514 0.0 
1.00693 -0.00171427 0.0 
1.00628 0 0.0 
0.197506 -0.0262809 0.0 
1.00603 -0.00025117 0.0 
0.307659 -0.000958087 0.0 
1.00736 0.000630525 0.0 
0.851241 0.1678 0.0 
-3.17561e-145 -2.36701e-146 0.0 
0.998158 -0.0104828 0.0 
0.194202 -0.010089 0.0 
1.3943e-238 1.3308e-239 0.0 
0.0698763 0.0196566 0.0 
0.805777 0.0100922 0.0 
0.412774 0.00287396 0.0 
1.00729 0.00117918 0.0 
0.0128417 2.08285e-06 0.0 
0.000285167 1.81773e-05 0.0 
0.45006 0.0116574 0.0 
0.581914 0.0828689 0.0 
0.000841223 -0.000107262 0.0 
0.056206 -0.000488026 0.0 
0.00783567 0.000117764 0.0 
1.00931 -0.00245052 0.0 
1.00803 0.000664439 0.0 
0.562309 0.144681 0.0 
1.00786 -0.00974218 0.0 
0.731861 0.332423 0.0 
0.0940733 -0.0108098 0.0 
1.00665 0.000169796 0.0 
-1.71289e-85 -1.17294e-86 0.0 
1.06148 -0.192443 0.0 
0 0 0.0 
0.918425 0.238667 0.0 
0.0295705 -0.00489443 0.0 
0.748155 -0.0168025 0.0 
0.477933 0.00417061 0.0 
0.923476 0.0802692 0.0 
0.145688 -0.0208891 0.0 
1e-307 1e-307 0.0 
0.335552 0.176637 0.0 
0.957139 0.0288619 0.0 
0.802307 0.164038 0.0 
1 0 0.0 
0.373266 0.0277038 0.0 
0.806324 0.197926 0.0 
0.752893 0.219593 0.0 
0.0126887 0.000978448 0.0 
0.000237205 -4.95535e-06 0.0 
0.105702 0.0188165 0.0 
0.0644501 0.0139724 0.0 
7.55626e-06 2.82762e-07 0.0 
0.00177874 -0.000228037 0.0 
1.06025 -0.228018 0.0 
1.00712 0 0.0 
2.95701e-95 -2.46579e-97 0.0 
1.0523 -0.132299 0.0 
0.728394 -0.235536 0.0 
0.859657 0.152981 0.0 
1.01864 -0.0781735 0.0 
0.974201 0.012533 0.0 
0.0435788 0.0018592 0.0 
0.753535 -0.102176 0.0 
0.705016 -0.0872216 0.0 
0.329635 -0.325159 0.0 
0.706907 0.0960966 0.0 
0.003038 -0.000691478 0.0 
1.01271 -0.0021924 0.0 
0.371426 -0.0059126 0.0 
0 0 0.0 
0.283459 0.0458618 0.0 
0 0 0.0 
0.371586 0.0481763 0.0 
-3.31996e-166 -3.78902e-166 0.0 
-5.93375e-203 -6.29577e-204 0.0 
5.9251e-06 -1.62844e-06 0.0 
1.00983 0.012363 0.0 
1.01023 0.000445613 0.0 
1.0013 -0.001796 0.0 
0.446032 0.0409673 0.0 
0.703743 0.26142 0.0 
0.720784 -0.1127 0.0 
0.917715 -0.19468 0.0 
0 0 0.0 
0.915637 -0.131375 0.0 
0 0 0.0 
0.858901 -0.0507334 0.0 
0.94698 -0.00943414 0.0 
0.77718 0.262907 0.0 
0 0 0.0 
0.0155542 9.03354e-05 0.0 
0.0632631 -0.0176665 0.0 
0.0472911 0.0777707 0.0 
0.661685 0.155145 0.0 
2.43475e-11 -5.94209e-12 0.0 
1.06578 0.220211 0.0 
0.995669 0.000728881 0.0 
1.06683 0.191618 0.0 
1.10687 0.168714 0.0 
0.724263 0.12152 0.0 
0.444233 0.00081118 0.0 
0.673614 0.0994636 0.0 
0.721793 0.156136 0.0 
0.339684 -0.0562193 0.0 
0.250352 0.0209939 0.0 
0 0 0.0 
0.934021 -0.0578298 0.0 
0.792758 -0.0104521 0.0 
0.780187 -0.22498 0.0 
1.00147 -0.000853835 0.0 
0 0 0.0 
0.447379 0.0283473 0.0 
5.08947e-17 -3.4419e-18 0.0 
0.954627 -0.269537 0.0 
0.187019 0.0111505 0.0 
-8.15065e-65 8.75056e-66 0.0 
0.737026 -0.0396172 0.0 
0.999102 0.00912361 0.0 
1e-307 1e-307 0.0 
0.475145 0.330717 0.0 
0.76137 0.327664 0.0 
0.0778527 -0.0140849 0.0 
0.0232308 -0.00479966 0.0 
1.00844 -1.51024e-189 0.0 
0.785872 0.149202 0.0 
3.20394e-30 2.49745e-31 0.0 
0.00704462 0.000594331 0.0 
0.00466384 0.000335736 0.0 
1.00713 0.0001944 0.0 
-2.50652e-163 -2.86065e-163 0.0 
1.00689 -0.0031978 0.0 
0.298122 0.0164889 0.0 
0.0055755 0.000545941 0.0 
1.05431 -0.249709 0.0 
1.00662 -0.000182281 0.0 
0.104466 0.00615953 0.0 
0.611003 0.306536 0.0 
1.0062 -0.00211763 0.0 
1.00848 0.00119749 0.0 
0.0874505 -0.00949491 0.0 
1.00109 -0.00125996 0.0 
0.144374 0.0111509 0.0 
0.946569 -0.0531924 0.0 
0.253321 0.00909719 0.0 
0.100113 -0.0149504 0.0 
0.431082 0.00416593 0.0 
1.01615 -0.00707034 0.0 
1.00001 -0.000110974 0.0 
1.01083 0.00144346 0.0 
1.00049 -0.000465122 0.0 
1.00714 -0.000429075 0.0 
1.00201 -0.00037397 0.0 
0.51159 0.00612623 0.0 
0.320751 0.060374 0.0 
5.52244e-05 -4.72873e-06 0.0 
0.603145 0.336807 0.0 
0.00810059 0.00108118 0.0 
0.0491712 -0.117906 0.0 
1.00961 -0.00120126 0.0 
-9.79724e-307 -9.16355e-308 0.0 
0.0136196 -0.00602872 0.0 
3.83315e-08 -2.30732e-09 0.0 
0.478387 -0.446247 0.0 
1.00917 -0.00407564 0.0 
0.771504 -0.0834608 0.0 
1.00357 0.00155898 0.0 
0.0187333 -0.000264789 0.0 
1.00846 0.00303027 0.0 
0.462081 -0.0135745 0.0 
0.960311 0.0154768 0.0 
0.0446023 -0.00698471 0.0 
1.05513 0.0102493 0.0 
1.00836 0.00219689 0.0 
0.733109 -0.0105528 0.0 
1.00034 -0.00111769 0.0 
1.00689 -0.261492 0.0 
0.271442 0.232998 0.0 
3.39717e-17 -1.15671e-17 0.0 
1.00769 0.000459182 0.0 
0.255997 -0.0228425 0.0 
1.03635 -0.0199438 0.0 
0.952288 -0.289392 0.0 
1.07159 -0.0360637 0.0 
0.525501 -0.00799107 0.0 
0.0103622 0.000173296 0.0 
1.01579 -0.0102188 0.0 
0 0 0.0 
0.594723 -0.34639 0.0 
0.868159 -0.0978173 0.0 
0.989061 0.00831855 0.0 
1.00872 8.81223e-05 0.0 
0.988355 0.0515744 0.0 
1.02179 -0.185121 0.0 
1.00406 0.0104684 0.0 
1.24635e-23 -2.96884e-25 0.0 
1.00382 -0.00458805 0.0 
0.0356847 0.00100295 0.0 
0.637994 0.0897406 0.0 
1.65296e-06 -4.83487e-08 0.0 
0.999895 -0.000126742 0.0 
0.0332953 0.00211399 0.0 
0.907795 0.165701 0.0 
0.336346 -0.0214052 0.0 
1.00921 5.37184e-05 0.0 
0.981492 -0.0254596 0.0 
1.00439 0 0.0 
0.186677 0.00568787 0.0 
0.00850535 0.00118988 0.0 
0.0189539 0.00112733 0.0 
0.0484251 -0.00546587 0.0 
0.810679 0.0790396 0.0 
0.121319 0.0110856 0.0 
0.565785 0.287643 0.0 
0.388793 0.0349981 0.0 
-8.85613e-147 -1.01073e-146 0.0 
0.260679 -0.0288872 0.0 
0.053367 -0.00209253 0.0 
0.65305 -0.0754269 0.0 
1.10099 -0.00770869 0.0 
0.395763 0.0492445 0.0 
0.0773188 -0.0065375 0.0 
0.642981 -0.0278867 0.0 
1.0084 0.00113406 0.0 
1.00136 0.0129043 0.0 
0.0133358 -0.000724438 0.0 
1 0.00024902 0.0 
0.311423 0.265337 0.0 
0 0 0.0 
0.805276 0.0276813 0.0 
0.00665391 0.000415387 0.0 
0.000564899 -3.12706e-05 0.0 
0.000208793 1.48968e-05 0.0 
0.790561 0.342294 0.0 
0 0 0.0 
0.139138 -0.01858 0.0 
0.474044 0.0423943 0.0 
0.00576552 0.000251149 0.0 
0 0 0.0 
-4.35904e-123 2.27031e-124 0.0 
0.00188952 -0.000108856 0.0 
0.607487 0.315249 0.0 
0 0 0.0 
0.505125 0.0382453 0.0 
0.460966 -0.192262 0.0 
9.16853e-05 -1.12066e-05 0.0 
1.00788 -0.002953 0.0 
0.263041 -0.13135 0.0 
0.886908 0.0652972 0.0 
0 0 0.0 
0.308237 0.0213413 0.0 
1.00005 0.0103254 0.0 
0.0957911 0.00115516 0.0 
1.00664 -0.00060015 0.0 
1.00807 -0.000733282 0.0 
0.030564 -0.0321906 0.0 
0 0 0.0 
1.00521 0.00255064 0.0 
0.89065 0.164464 0.0 
1.01245 0.00155562 0.0 
0.0123789 -0.000380849 0.0 
1.00113 0 0.0 
0.218661 -0.00238143 0.0 
0.105092 0.0166217 0.0 
0.181174 0.0236591 0.0 
0.118029 0.0168162 0.0 
0.794063 0.100764 0.0 
0.801416 -0.140705 0.0 
0.157186 -0.0162746 0.0 
0.102939 -0.00757655 0.0 
1.01264 -0.0027496 0.0 
3.50635e-05 6.82839e-06 0.0 
1.01602 0.000506674 0.0 
0.248662 0.154768 0.0 
0.759594 0.197702 0.0 
1.04241e-05 3.54855e-06 0.0 
1.00202 -0.000871747 0.0 
0.000234583 2.19905e-06 0.0 
1.07345 -0.0966314 0.0 
0.010358 0.000842681 0.0 
0.589603 0.0593566 0.0 
0 0 0.0 
1.00867 0.000272568 0.0 
1.08483 -0.16459 0.0 
4.12053e-06 6.73398e-07 0.0 
0.646674 0.18078 0.0 
1.00846 0.000234348 0.0 
0.12749 -0.0140021 0.0 
0.912897 0.145007 0.0 
0.00413356 0.000465985 0.0 
1.00926 -0.00260317 0.0 
0 0 0.0 
1.08427 -0.035696 0.0 
0.161897 -0.0100186 0.0 
0.344145 -0.0257568 0.0 
1.0091 0.000528501 0.0 
0.714693 -0.103231 0.0 
0.957058 0.072646 0.0 
0.449991 0.0262766 0.0 
0.504193 0.009406 0.0 
0.854732 0.215854 0.0 
0.00760361 0.000118137 0.0 
0.708628 -0.378045 0.0 
0.000396923 -3.04926e-05 0.0 
0.761121 -0.290471 0.0 
1.05588 0.00341401 0.0 
1.01028 -0.0092863 0.0 
0.657002 -0.285985 0.0 
0 0 0.0 
0.52756 -0.0576261 0.0 
0.278195 0.0239072 0.0 
0.23728 0.0083784 0.0 
0.561334 -0.297251 0.0 
1.00822 0.000445762 0.0 
1.00381 -0.00388242 0.0 
1.00236 -0.00357251 0.0 
0.715867 -0.26738 0.0 
1.0064 0.008866 0.0 
0.0310984 -0.00411663 0.0 
-5.95912e-159 -6.80105e-159 0.0 
0.959875 0.0912476 0.0 
0.689305 0.0190995 0.0 
0.00577691 -0.000581047 0.0 
1.00957 -0.000898278 0.0 
0.716015 0.336826 0.0 
0.895799 -0.0091398 0.0 
0.647715 0.256139 0.0 
0.711711 0.27083 0.0 
2.29507e-14 -1.3196e-15 0.0 
1.00834 -0.000439541 0.0 
-1.89378e-167 -7.75726e-168 0.0 
-1.57722e-196 -1.68692e-197 0.0 
1.01717 -0.302553 0.0 
1.00756 0 0.0 
0.657756 0.0864266 0.0 
5.89007e-07 1.56958e-07 0.0 
7.29377e-09 1.42048e-09 0.0 
0.517113 0.00936008 0.0 
0.785607 0.0171849 0.0 
0.676745 0.241392 0.0 
0.024228 0.00379646 0.0 
4.47329e-48 1.65977e-48 0.0 
0.708603 0.375195 0.0 
0.487822 -0.0823019 0.0 
1.00691 0 0.0 
0.556252 -0.0638516 0.0 
0.540507 0.0993535 0.0 
0.727863 0.308018 0.0 
1.00035 -0.000264735 0.0 
0.9046 0.0258576 0.0 
1.00847 -0.00274145 0.0 
0.345308 -0.024899 0.0 
0.998319 0.0047544 0.0 
0.608142 -0.291947 0.0 
0.000245615 -1.68766e-05 0.0 
2.4718e-05 -3.6306e-06 0.0 
0.829708 0.0114921 0.0 
-6.28439e-55 -5.90657e-56 0.0 
0 0 0.0 
0.132398 0.00835876 0.0 
1.00188 -0.00274717 0.0 
0.0200129 -0.00645626 0.0 
0.00489524 0.000449121 0.0 
0.930569 -0.00368813 0.0 
0.76212 0.305282 0.0 
0.999426 0.00572287 0.0 
0.0073705 0.000121751 0.0 
0 0 0.0 
0.424628 -0.124066 0.0 
0.659428 -0.0207706 0.0 
0.536536 -0.309116 0.0 
0.578863 -0.433428 0.0 
8.58052e-05 5.23619e-06 0.0 
0.933302 0.0468517 0.0 
1.00031 0 0.0 
0.448794 -0.10082 0.0 
0.54105 -0.034291 0.0 
1.97845e-30 -1.36105e-31 0.0 
0.00962198 -0.000210407 0.0 
1e-307 1e-307 0.0 
0.721904 0.0552504 0.0 
0.496784 0.106408 0.0 
0.21252 0.00664217 0.0 
0.06657 -0.00147621 0.0 
0.780737 0.36655 0.0 
1.00146 -0.000889325 0.0 
0.468842 0.177326 0.0 
-2.45432e-219 2.9595e-221 0.0 
0.933915 0.0110132 0.0 
0 0 0.0 
0.999998 -0.00192972 0.0 
0.472577 -0.0840833 0.0 
1.84276e-05 -6.42436e-06 0.0 
0.137496 0.0968104 0.0 
0.46024 -0.0432353 0.0 
1 0 0.0 
0.763326 0.372477 0.0 
0.0893833 0.0649656 0.0 
0 0 0.0 
0.14569 0.0394166 0.0 
0.259436 -0.0475372 0.0 
0.870837 0.269895 0.0 
1.00942 0 0.0 
0.748761 0.277157 0.0 
0.095672 0.00538569 0.0 
-2.77201e-192 3.34259e-194 0.0 
0.958018 0.000914681 0.0 
1.00967 0.00172418 0.0 
0.150434 0.0178851 0.0 
1.0672e-16 1.12425e-17 0.0 
1.00745 0 0.0 
1.00742 -0.00249539 0.0 
0.788931 0.318896 0.0 
0 0 0.0 
1.00703 -0.00978165 0.0 
0.0332523 -0.0118244 0.0 
0.490261 -0.0495183 0.0 
0.768965 0.3651 0.0 
0.747283 0.0633755 0.0 
0.578281 -0.0619617 0.0 
1.00087 0.00237498 0.0 
0.863392 0.354323 0.0 
0.493138 -0.172404 0.0 
0.814829 0.35641 0.0 
0.902548 -0.0747683 0.0 
1.00542 0.00451303 0.0 
0.943162 -0.334865 0.0 
1e-307 1e-307 0.0 
0.745805 -0.0904198 0.0 
0.805179 -0.0817099 0.0 
0.192132 0.0320388 0.0 
1.00362 -0.00597307 0.0 
1.12147 0.117686 0.0 
0.327063 0.0457455 0.0 
1.04983 0.102946 0.0 
0 0 0.0 
0.0218192 -0.000497756 0.0 
1.00808 0.000627762 0.0 
0 0 0.0 
0.00743617 -0.00104955 0.0 
0.0819497 -0.00820133 0.0 
0.0461049 -0.00984924 0.0 
0.41139 -0.00454652 0.0 
0.80979 0.127085 0.0 
0.12882 -0.0297017 0.0 
0.00281361 -0.000288665 0.0 
0.00857937 -0.0011198 0.0 
0.453646 -0.0475463 0.0 
0.838455 -0.0223382 0.0 
0.405255 -0.00313423 0.0 
4.94604e-06 -2.96383e-07 0.0 
0.0599306 -0.0182471 0.0 
0.780346 0.13636 0.0 
0.78064 0.196111 0.0 
-5.95473e-308 1e-307 0.0 
0.609216 0.340794 0.0 
0.189379 0.0401827 0.0 
0.799879 0.0732048 0.0 
0.455346 -0.347401 0.0 
0.966626 -0.167971 0.0 
0.696742 -0.448948 0.0 
0.767856 0.087457 0.0 
0.0503775 0.00147632 0.0 
0.14103 0.00644025 0.0 
0.726103 -0.0658476 0.0 
1.00317 0.00577667 0.0 
1 0 0.0 
0.771744 -0.290032 0.0 
0.10195 0.0172275 0.0 
0.44578 -0.0381476 0.0 
1.00722 -0.000242612 0.0 
1.00152 0.000540863 0.0 
1.03347 -0.0533518 0.0 
0.171853 0.012658 0.0 
0.0449839 -0.0694527 0.0 
0.968803 0.169318 0.0 
0.859919 -0.143317 0.0 
1.00976 -0.00260987 0.0 
1.82872e-08 -2.31772e-10 0.0 
0.591351 0.0806832 0.0 
0.0431858 -0.0166884 0.0 
0.985304 -0.0294532 0.0 
0.227513 0.0168289 0.0 
1.00951 -0.00268439 0.0 
-7.47259e-191 -5.32158e-192 0.0 
0.85534 -0.118232 0.0 
2.60757e-17 2.83406e-18 0.0 
0.950773 -0.0518761 0.0 
0.919981 0.00181021 0.0 
8.46285e-06 -6.58365e-07 0.0 
1.01945e-211 2.3337e-212 0.0 
0.862171 0.258331 0.0 
0 0 0.0 
1.00311 -0.00489923 0.0 
1.00821 0.00135058 0.0 
1.00522 0.000925965 0.0 
6.94503e-209 1.58984e-209 0.0 
2.22084e-12 1.05115e-12 0.0 
0.892363 -0.300135 0.0 
0.0141383 -0.00719598 0.0 
0.966182 0.3053 0.0 
0.0931954 -0.00888848 0.0 
1.20379e-07 -1.13982e-08 0.0 
0 0 0.0 
0.222175 0.108257 0.0 
1.05958 0.218967 0.0 
0.316183 0.0751797 0.0 
0.271256 -0.0133746 0.0 
0.577842 0.00129756 0.0 
0.0798453 -0.00712205 0.0 
0.280592 -0.0294597 0.0 
0 0 0.0 
0.0405634 0.00789825 0.0 
0.438734 -0.00999122 0.0 
0.634779 -0.0419862 0.0 
1.00045 0.00516106 0.0 
0.316148 -0.0126581 0.0 
-2.02147e-264 -3.05083e-265 0.0 
0.940903 -0.101006 0.0 
1.09308 0.091813 0.0 
1.55152e-113 1.4724e-114 0.0 
1.00663 -0.00282448 0.0 
1.01197 -0.294419 0.0 
0.0102771 0.000512422 0.0 
0.324649 0.168293 0.0 
0.0682942 0.0165801 0.0 
0.0363091 -0.0153437 0.0 
1e-307 1e-307 0.0 
0.0735091 -0.000237403 0.0 
1.02204 0.143228 0.0 
0.999516 -0.000241727 0.0 
0.356478 -0.0298228 0.0 
0.500566 -0.113133 0.0 
1.00907 -0.000684434 0.0 
1.0034 -0.00364655 0.0 
0 0 0.0 
1.00573 -0.00357906 0.0 
0.971072 -0.0132679 0.0 
0.997853 0.0522979 0.0 
1.00905 0.255335 0.0 
1.00628 -0.0103618 0.0 
0.222966 0.052538 0.0 
1.00903 0.000408702 0.0 
0.910627 0.337698 0.0 
0.0164223 0.000653796 0.0 
0.608474 -0.465106 0.0 
1.00672 -0.00209522 0.0 
3.38059e-05 -5.51475e-06 0.0 
0.727329 0.191205 0.0 
1.00679 -0.00354327 0.0 
0.67839 0.199137 0.0 
1.00991 -0.00271643 0.0 
0.285592 0.135421 0.0 
0.00495375 0.000216005 0.0 
0 0 0.0 
1.12607 0.107386 0.0 
1.00868 -0.000907698 0.0 
1.03614 -0.27302 0.0 
1.00474 0.00182191 0.0 
0.475918 0.289901 0.0 
1.00788 0.00154711 0.0 
-3.148e-164 4.22786e-166 0.0 
1.01127 -0.00117282 0.0 
1.00146 -0.00168731 0.0 
0.437002 0.0791442 0.0 
0.233707 -0.141982 0.0 
1.00911 0.00107324 0.0 
1.06231 0.0637424 0.0 
0.590343 -0.0724904 0.0 
0.562053 0.0217353 0.0 
0.843888 -0.260313 0.0 
1.09274 -0.0954748 0.0 
0.00452815 -0.00123941 0.0 
0.0190979 0.00144869 0.0 
1.0093 -0.00222418 0.0 
1.00695 -0.0450625 0.0 
1.01114 -0.00190397 0.0 
0.952866 0.0438575 0.0 
0.999848 -0.00624511 0.0 
0.00728682 -0.00317359 0.0 
1.00985 0.00117571 0.0 
0.807054 0.0188326 0.0 
0.0129784 0.000181105 0.0 
0 0 0.0 
1.00756 0.000681679 0.0 
0.626343 0.00749762 0.0 
0.943303 -0.359821 0.0 
1.00399 0 0.0 
0.00736747 -0.000325441 0.0 
1.00891 -9.61149e-51 0.0 
0.693083 -0.290051 0.0 
0 0 0.0 
1.01052 -0.00308548 0.0 
0.048709 -0.00344894 0.0 
0 0 0.0 
0.00928384 0.000539082 0.0 
0.00669805 0.000416701 0.0 
1.00202 0.0017167 0.0 
0 0 0.0 
1.00959 -0.00246712 0.0 
0.575075 0.223002 0.0 
0.650812 0.277271 0.0 
7.35121e-05 -7.76102e-06 0.0 
0.852347 -0.0357517 0.0 
0.920395 -0.304824 0.0 
1.00003 0.000516075 0.0 
1.00807 0.00497012 0.0 
0.84777 0.0541292 0.0 
0.433653 0.110696 0.0 
0.951772 0.284051 0.0 
3.5804e-06 2.48429e-07 0.0 
0.118114 -0.0215235 0.0 
0.818968 -0.244746 0.0 
0.0586173 0.0100886 0.0 
0.16121 0.168017 0.0 
0 0 0.0 
0.0149803 -0.00720613 0.0 
0.498168 -0.355587 0.0 
0.0333074 -0.0150408 0.0 
1.01733 -0.111304 0.0 
1.00634 -0.00236558 0.0 
0.80176 -0.352074 0.0 
9.34272e-07 2.97865e-08 0.0 
0.838661 0.015176 0.0 
0 0 0.0 
0.905522 0.332182 0.0 
0.00455397 -0.000641669 0.0 
0.388699 0.021009 0.0 
1.00902 0.00895264 0.0 
0.645615 -0.00919354 0.0 
1.41775e-08 -6.24623e-10 0.0 
1.0065 0.000323916 0.0 
0.135759 0.00288329 0.0 
1.00575 0.153366 0.0 
0.63491 -0.136257 0.0 
0.0113681 0.00107987 0.0 
0.745536 -0.429536 0.0 
1.00757 0.00296414 0.0 
0.240599 -0.00639178 0.0 
0.248326 -0.0388996 0.0 
0 0 0.0 
0.977173 0.293429 0.0 
1.00797 0.000335349 0.0 
1.01315 0.00300817 0.0 
1.0005 0.000587821 0.0 
1.02203 0.0435073 0.0 
0.682645 -0.107912 0.0 
1.01004 0.00195768 0.0 
0.00246832 -0.000370467 0.0 
0.277068 -0.345852 0.0 
0.0123926 0.000522073 0.0 
0.0342365 0.00115059 0.0 
0.00519448 0.000282426 0.0 
0 0 0.0 
0.00792663 0.000868682 0.0 
0.96846 -0.341864 0.0 
0.986154 -0.00534085 0.0 
-5.26996e-234 -1.48328e-234 0.0 
1.00092 -0.000361141 0.0 
0.87244 -0.0449684 0.0 
0.00414171 -0.000283867 0.0 
1.0078 0.000554408 0.0 
0.849349 0.332024 0.0 
1.00967 -0.00245361 0.0 
0.056511 0.0163075 0.0 
1.00773 0.0011024 0.0 
6.34449e-05 5.33111e-06 0.0 
1.00419 -0.0089745 0.0 
1.0182 -0.0452525 0.0 
0 0 0.0 
0.561464 -0.207659 0.0 
0.392135 0.00829702 0.0 
0.00035995 2.58274e-05 0.0 
0.00464844 8.21409e-05 0.0 
0.805694 0.165081 0.0 
1.01152 -0.00204564 0.0 
0.842946 0.346095 0.0 
1.00129 0.00315643 0.0 
0.840822 0.32283 0.0 
0.845909 0.297039 0.0 
1.00828 -0.00114234 0.0 
-4.69092e-85 5.02654e-86 0.0 
0.0458564 -0.00317905 0.0 
1.00001 -0.000530095 0.0 
0.948934 0.0609844 0.0 
0.880974 -0.0712941 0.0 
-3.42927e-116 -2.95301e-117 0.0 
0.97663 0.225669 0.0 
0.616314 -0.11658 0.0 
1.00124 0 0.0 
0.0565891 0.0252523 0.0 
1.00804 0.229416 0.0 
0.508828 0.00618466 0.0 
0.564365 0.0551548 0.0 
1.01366 -0.00171999 0.0 
0.00617304 -8.26529e-05 0.0 
0.0212516 0.000546622 0.0 
0.166143 -0.252761 0.0 
0.8922 -0.0282038 0.0 
1.76234e-237 1.68207e-238 0.0 
1e-307 1e-307 0.0 
8.05173e-14 -1.21843e-14 0.0 
1.0944 -0.113841 0.0 
0.00557302 0.000435741 0.0 
1.00698 0.000915023 0.0 
0 0 0.0 
0.930587 0.129608 0.0 
0.124893 -0.00653985 0.0 
0 0 0.0 
0 0 0.0 
0.00380047 -0.000679097 0.0 
0.662606 0.00768175 0.0 
1.00671 -0.00126878 0.0 
0.841179 0.34206 0.0 
0.204899 0.0230303 0.0 
0.00917535 0.000697346 0.0 
1.94441e-28 3.86332e-29 0.0 
0.353862 0.0908036 0.0 
0.124635 -0.0408289 0.0 
0.736003 0.302337 0.0 
0.00801149 -4.37703e-05 0.0 
7.01621e-06 2.69133e-07 0.0 
0.620174 0.0110696 0.0 
1.00055 0.00243444 0.0 
0 0 0.0 
2.69159e-09 9.70091e-11 0.0 
1.95926e-06 4.58799e-08 0.0 