<VTKFile type="UnstructuredGrid" version="0.1" byte_order="LittleEndian">
  <UnstructuredGrid>
    <Piece NumberOfPoints="12674" NumberOfCells="25187">
      <Points>
        <DataArray type = "Float64" NumberOfComponents="3" format="ascii">
0 0 0.0 
14 0 0.0 
14 8 0.0 
0 8 0.0 
4.16782 4.09801 0.0 
11.2047 6.16268 0.0 
4.22294 4.07682 0.0 
4.00491 4.00281 0.0 
3.99833 4.00152 0.0 
4.27592 4.05022 0.0 
4.1217 4.05313 0.0 
4.31866 4.08886 0.0 
4.01517 4.08782 0.0 
12.5949 1.78564 0.0 
5.00546 4.00308 0.0 
4.58091 4.05818 0.0 
4.85757 3.99181 0.0 
4.73875 4.02857 0.0 
4.08492 3.93693 0.0 
4.27514 4.03497 0.0 
7.86124 4.16307 0.0 
4.97365 4.02617 0.0 
3.80197 4.16755 0.0 
4.07594 3.95337 0.0 
3.88951 3.91171 0.0 
4.71988 4.11232 0.0 
4.36723 4.05555 0.0 
4.05474 4.02614 0.0 
4.10344 3.92288 0.0 
8.28818 5.78715 0.0 
9.83312 5.51889 0.0 
4.09533 4.03459 0.0 
4.00922 3.99881 0.0 
4.02803 4.04844 0.0 
7.8889 4.01415 0.0 
4.01927 3.99345 0.0 
4.01706 3.99618 0.0 
4.11094 4.03801 0.0 
4.0589 4.00429 0.0 
4.37665 3.94429 0.0 
3.98196 3.98783 0.0 
5.00749 4.02107 0.0 
4.36023 4.05917 0.0 
4.74047 3.98588 0.0 
4.62194 3.98063 0.0 
9.05394 0 0.0 
4.91533 3.96961 0.0 
4.44872 4.06564 0.0 
8.23782 4.02195 0.0 
5.00875 4.00222 0.0 
5.00541 4.01557 0.0 
4.24564 4.07735 0.0 
9.21594 8 0.0 
4.07975 3.95605 0.0 
4.01647 3.99236 0.0 
4.58637 4.06823 0.0 
4.03396 4.05254 0.0 
7.06806 5.98898 0.0 
4.01128 4.04737 0.0 
5.09382 4.07113 0.0 
4.68818 4.04778 0.0 
3.89932 6.84672 0.0 
3.4141 0.810222 0.0 
4.82064 4.03078 0.0 
8.11547 3.80085 0.0 
5.00785 4.00312 0.0 
10.8833 7.73481 0.0 
14 6.11123 0.0 
4.11501 4.15122 0.0 
3.96293 3.99513 0.0 
4.04956 3.95606 0.0 
4.9738 4.00599 0.0 
4.17031 4.06015 0.0 
4.90893 3.98232 0.0 
3.99922 3.99464 0.0 
5.03684 4.01469 0.0 
4.3156 4.08551 0.0 
12.7052 3.97138 0.0 
14 5.21618 0.0 
4.55888 4.05891 0.0 
4.23781 3.98295 0.0 
1.03306 6.23145 0.0 
4.30518 3.96862 0.0 
4.40194 3.97223 0.0 
5.00991 4.10716 0.0 
3.99405 4.15432 0.0 
4.28293 3.96815 0.0 
4.24422 7.49665 0.0 
3.96238 4.17228 0.0 
4.35343 3.94951 0.0 
4.00596 3.99585 0.0 
3.05349 4.57182 0.0 
4.19383 3.96654 0.0 
4.23647 3.95137 0.0 
5.00128 3.99352 0.0 
4.08373 4.05666 0.0 
5.50701 3.96896 0.0 
13.7718 3.6861 0.0 
4.27852 0 0.0 
5.04845 4.04311 0.0 
4.05234 3.99766 0.0 
9.29524 7.05698 0.0 
5.6089 8 0.0 
4.13434 4.07811 0.0 
2.65566 3.12664 0.0 
4.03921 4.05963 0.0 
3.99466 4.00664 0.0 
4.02852 3.97465 0.0 
4.35017 3.94589 0.0 
4.34594 4.10601 0.0 
3.97706 4.03149 0.0 
4.60995 3.98018 0.0 
4.04292 4.03219 0.0 
4.1741 4.07586 0.0 
4.68379 3.98458 0.0 
3.7391 1.31631 0.0 
4.1444 3.95991 0.0 
4.90104 3.99357 0.0 
4.152 3.9747 0.0 
4.66676 3.98334 0.0 
3.91267 2.38613 0.0 
4.02873 4.0411 0.0 
4.88146 4.04087 0.0 
3.9952 4.00599 0.0 
2.85295 1.67175 0.0 
4.1592 4.06546 0.0 
4.12124 3.98374 0.0 
5.55089 5.0193 0.0 
4.99558 4.00447 0.0 
12.0751 7.31139 0.0 
4.63837 4.03036 0.0 
4.99458 4.03862 0.0 
4.1463 4.03445 0.0 
4.02244 4.02798 0.0 
4.73325 4.0243 0.0 
4.12635 4.07409 0.0 
0 1.4212 0.0 
4.1501 3.96768 0.0 
4.1221 3.94586 0.0 
4.9931 4.01893 0.0 
4.21158 3.92358 0.0 
3.9629 4.03144 0.0 
5.01331 3.98969 0.0 
4.59878 4.05521 0.0 
4.0886 4.12809 0.0 
5.05415 4.0144 0.0 
3.00097 3.791 0.0 
4.12613 3.92733 0.0 
4.0175 4.04099 0.0 
3.80042 4.03888 0.0 
4.19206 3.91938 0.0 
4.08009 3.96866 0.0 
1.59261 4.11578 0.0 
4.09641 3.95124 0.0 
4.31325 4.0692 0.0 
5.02091 3.98132 0.0 
4.0919 4.03197 0.0 
4.16991 4.04935 0.0 
4.17721 4.06988 0.0 
5.02315 4.00601 0.0 
3.9968 4.05414 0.0 
3.99252 4.00665 0.0 
4.72763 4.04235 0.0 
4.03692 3.96557 0.0 
4.65875 3.98362 0.0 
13.1833 1.01136 0.0 
4.01318 4.13713 0.0 
4.13754 3.96494 0.0 
4.33415 4.0546 0.0 
4.10761 4.0532 0.0 
5.06886 4.12388 0.0 
4.19057 4.05281 0.0 
4.10081 3.94382 0.0 
4.05695 3.98888 0.0 
5.1748 3.98179 0.0 
3.46972 3.78856 0.0 
5.00368 4.02219 0.0 
4.84594 4.02648 0.0 
2.84291 0 0.0 
4.08433 4.05007 0.0 
4.90089 4.01899 0.0 
4.15753 4.10167 0.0 
3.96821 4.02723 0.0 
4.18309 4.12442 0.0 
3.96476 4.03852 0.0 
4.13137 4.09569 0.0 
3.97233 4.04194 0.0 
4.31383 4.06831 0.0 
4.077 3.9655 0.0 
2.01139 2.3485 0.0 
1.12644 3.34247 0.0 
3.92251 4.00785 0.0 
4.2843 3.96851 0.0 
9.26661 0.467902 0.0 
5.95927 1.49978 0.0 
5.00318 4.00255 0.0 
11.3127 4.62416 0.0 
4.32985 4.07068 0.0 
3.89425 3.93555 0.0 
5.04007 4.02119 0.0 
4.40328 4.06846 0.0 
13.2653 2.91651 0.0 
4.00756 4.02287 0.0 
4.00612 4.04547 0.0 
4.23103 3.92099 0.0 
4.98371 4.01321 0.0 
4.16897 3.94561 0.0 
4.12173 4.07245 0.0 
4.45069 4.06604 0.0 
4.52807 3.97636 0.0 
0.372474 6.03503 0.0 
4.11322 4.48681 0.0 
8.2761 4.17691 0.0 
4.10501 3.93754 0.0 
6.25214 4.08628 0.0 
9.70989 7.75915 0.0 
4.67279 4.04973 0.0 
4.02341 4.03456 0.0 
4.46296 4.06641 0.0 
4.52724 7.41561 0.0 
5.05919 4.01855 0.0 
2.15923 7.15628 0.0 
4.03252 3.93179 0.0 
4.60701 3.95862 0.0 
4.4255 4.08285 0.0 
4.05936 4.03931 0.0 
4.11859 4.0583 0.0 
7.18887 6.80823 0.0 
4.00938 3.99278 0.0 
1.24078 0.550265 0.0 
9.10545 7.45594 0.0 
2.38032 0.204862 0.0 
4.08304 4.03466 0.0 
4.2625 3.98267 0.0 
4.03018 4.07951 0.0 
4.01517 4.03055 0.0 
1.81725 2.57404 0.0 
3.99882 3.99972 0.0 
4.3908 3.97131 0.0 
5.48386 4.11804 0.0 
4.00943 4.02943 0.0 
4.07006 3.48711 0.0 
3.99908 3.98836 0.0 
8.76112 4.31939 0.0 
4.97938 4.05504 0.0 
4.06685 4.0004 0.0 
5.82879 4.74509 0.0 
4.12581 4.05394 0.0 
4.21507 3.9482 0.0 
3.82857 4.23457 0.0 
4.97222 4.02124 0.0 
3.98795 3.99915 0.0 
4.19735 4.0441 0.0 
4.13405 3.96704 0.0 
4.17604 4.06023 0.0 
4.08678 3.96894 0.0 
11.9473 3.59927 0.0 
5.1327 4.04445 0.0 
4.62936 3.85906 0.0 
4.08293 3.9416 0.0 
4.7209 3.94678 0.0 
4.15534 4.02119 0.0 
4.72357 3.98468 0.0 
5.00166 3.98677 0.0 
12.9541 0.480223 0.0 
3.9901 3.98452 0.0 
4.1024 4.02831 0.0 
4.68418 4.0845 0.0 
4.16376 3.95618 0.0 
10.2893 1.59061 0.0 
3.98465 3.9804 0.0 
4.26472 3.96768 0.0 
4.1797 4.07872 0.0 
13.3828 0.773072 0.0 
4.13781 4.0564 0.0 
3.57706 3.60692 0.0 
4.5999 4.05733 0.0 
4.00383 4.01167 0.0 
13.2253 0 0.0 
10.1351 3.82958 0.0 
3.99803 4.00953 0.0 
4.27338 3.97609 0.0 
5.06347 3.99507 0.0 
4.33951 4.07422 0.0 
4.5007 4.06291 0.0 
4.01441 4.0188 0.0 
5.08198 4.04957 0.0 
5.02947 4.00625 0.0 
4.28733 3.96818 0.0 
5.63104 7.16389 0.0 
4.45479 4.06642 0.0 
4.33922 3.91937 0.0 
4.73083 4.053 0.0 
13.4125 7.46568 0.0 
4.08711 3.98632 0.0 
3.99883 4.01382 0.0 
1.56175 5.17905 0.0 
4.99938 3.99908 0.0 
4.09273 4.06251 0.0 
4.45214 3.9727 0.0 
3.98048 4.05294 0.0 
4.90586 4.01587 0.0 
4.84023 3.97761 0.0 
4.13386 4.04638 0.0 
4.05148 4.02999 0.0 
4.22394 3.96676 0.0 
4.95564 4.10258 0.0 
9.78278 4.0366 0.0 
3.99752 4.02893 0.0 
4.01884 3.99521 0.0 
5.62621 2.70427 0.0 
3.98628 3.99582 0.0 
12.3632 7.22 0.0 
4.98756 3.96669 0.0 
4.01204 4.00974 0.0 
4.85882 4.02555 0.0 
4.82562 3.99013 0.0 
0 1.15721 0.0 
4.97445 3.98438 0.0 
8.1554 7.24604 0.0 
4.99093 4.00295 0.0 
4.00774 3.99043 0.0 
3.98163 4.03116 0.0 
4.17689 3.91279 0.0 
4.3171 4.12404 0.0 
6.76618 8 0.0 
13.7588 4.46424 0.0 
4.18631 4.04791 0.0 
9.52987 5.94501 0.0 
5.10311 4.0306 0.0 
4.28205 4.09231 0.0 
5.07095 2.11145 0.0 
3.93422 3.94134 0.0 
4.0775 3.92649 0.0 
3.98817 4.01223 0.0 
4.7856 3.98852 0.0 
4.01475 3.97768 0.0 
4.62522 4.05363 0.0 
3.85341 3.99819 0.0 
12.9442 3.14885 0.0 
4.04077 3.99338 0.0 
4.02812 4.02773 0.0 
4.57501 3.95546 0.0 
5.04087 3.99921 0.0 
4.96133 4.00309 0.0 
4.78686 3.98806 0.0 
5.80192 4.02352 0.0 
4.04828 3.97544 0.0 
4.747 3.98642 0.0 
4.16636 4.0614 0.0 
5.18793 4.05304 0.0 
4.69649 4.04666 0.0 
4.05773 3.97131 0.0 
3.98111 4.00805 0.0 
3.99977 3.95586 0.0 
3.99352 3.97666 0.0 
12.958 4.63711 0.0 
12.2425 0.673717 0.0 
4.11868 3.93345 0.0 
4.51994 3.96527 0.0 
4.27492 4.05293 0.0 
4.10308 3.95678 0.0 
4.99692 3.99852 0.0 
1.25763 5.52376 0.0 
4.25477 4.06663 0.0 
1.98579 3.23943 0.0 
4.43175 3.9726 0.0 
3.91743 3.939 0.0 
3.98206 3.97395 0.0 
0.747951 5.69629 0.0 
4.80448 4.05827 0.0 
0.958547 0 0.0 
4.27898 3.96852 0.0 
4.02402 4.04636 0.0 
4.41219 4.04382 0.0 
4.00375 4.03912 0.0 
3.99122 4.03342 0.0 
4.16882 4.06286 0.0 
3.99417 4.04189 0.0 
4.14569 4.07303 0.0 
7.65447 7.09734 0.0 
3.9961 4.01386 0.0 
3.99997 3.99241 0.0 
4.73315 4.04109 0.0 
5.0427 4.00784 0.0 
4.41083 4.08746 0.0 
3.98918 4.03714 0.0 
4.16984 3.91961 0.0 
4.01059 4.0357 0.0 
4.92166 4.01389 0.0 
4.84176 4.0979 0.0 
4.09975 3.95651 0.0 
4.13306 4.06692 0.0 
4.00056 4.04248 0.0 
1.05155 0.371395 0.0 
2.48135 1.40934 0.0 
3.9896 4.00463 0.0 
5.18814 3.88706 0.0 
3.98613 3.98439 0.0 
4.00845 4.00175 0.0 
4.00273 4.04763 0.0 
4.02428 4.00868 0.0 
11.7827 2.87782 0.0 
4.75644 4.03898 0.0 
0 7.00555 0.0 
4.74424 4.02013 0.0 
3.96028 4.05564 0.0 
5.05817 4.00008 0.0 
4.00006 3.99829 0.0 
3.98643 3.99986 0.0 
4.99983 4.00536 0.0 
4.47783 4.03912 0.0 
3.99581 3.98523 0.0 
4.19562 4.06057 0.0 
4.06735 4.03631 0.0 
3.98481 4.00073 0.0 
3.97761 4.0047 0.0 
5.00003 3.9957 0.0 
4.63918 4.05273 0.0 
4.5375 4.06142 0.0 
12.5153 5.56373 0.0 
4.11077 4.06077 0.0 
3.98558 4.00796 0.0 
5.00418 4.00022 0.0 
4.66928 3.98248 0.0 
0.780665 4.20936 0.0 
4.36178 4.07009 0.0 
4.24504 4.06437 0.0 
4.27982 4.05867 0.0 
14 6.70716 0.0 
4.22475 3.99326 0.0 
4.99712 4.01383 0.0 
1.94497 5.9216 0.0 
10.5612 3.53176 0.0 
4.00071 3.98403 0.0 
9.66627 6.70196 0.0 
4.4689 4.06561 0.0 
4.07076 4.03121 0.0 
4.31451 4.05608 0.0 
4.10927 3.95709 0.0 
3.99705 4.04765 0.0 
4.96232 3.98271 0.0 
4.02894 4.02569 0.0 
4.27037 4.11663 0.0 
5.0004 3.98388 0.0 
4.13396 4.05674 0.0 
4.13787 3.93543 0.0 
4.68101 4.01819 0.0 
0 3.21266 0.0 
4.02241 4.04141 0.0 
3.9487 4.03134 0.0 
4.42638 4.06665 0.0 
4.1373 4.03126 0.0 
4.02972 4.05235 0.0 
4.02642 3.97524 0.0 
4.01777 4.04818 0.0 
4.95392 3.98663 0.0 
8.66912 5.53469 0.0 
4.0266 3.96232 0.0 
4.84885 5.80485 0.0 
4.10695 3.94953 0.0 
4.44483 3.96382 0.0 
4.09298 4.04838 0.0 
4.0792 3.96995 0.0 
3.05926 1.41545 0.0 
4.03778 3.99834 0.0 
4.05939 3.97089 0.0 
4.97917 3.99062 0.0 
4.25938 3.9481 0.0 
13.0193 4.44823 0.0 
4.98817 4.01929 0.0 
4.27237 3.94803 0.0 
3.95357 4.06538 0.0 
1.71387 2.32496 0.0 
4.10175 3.95894 0.0 
[...]
<PointData>
  <DataArray type = "Float64" Name="Vitesse" NumberOfComponents="3" format="ascii">
1 0 0.0 
1.00629 0 0.0 
1.00497 0 0.0 
1 0 0.0 
1.02908 0.172774 0.0 
1.00775 -0.000813435 0.0 
0.402345 0.0381872 0.0 
2.51768e-52 3.55623e-52 0.0 
0.0448869 -0.0689258 0.0 
0 0 0.0 
0.0541163 0.0100404 0.0 
0.493471 0.0215727 0.0 
0.898114 0.245727 0.0 
1.00789 0.000809619 0.0 
0.0199594 -0.0064716 0.0 
0.00954538 -0.000895846 0.0 
0.00460565 9.43472e-05 0.0 
1.29484e-165 1.0041e-166 0.0 
1.05196 -0.186299 0.0 
1.52207e-286 1.11879e-287 0.0 
0.933294 -0.00410448 0.0 
0.0663339 -0.00994991 0.0 
0.935735 0.0488743 0.0 
0.820565 -0.145719 0.0 
0.899662 -0.0787929 0.0 
0.736483 -0.0349295 0.0 
0 0 0.0 
1.70528e-239 4.99139e-240 0.0 
1.08659 -0.165265 0.0 
1.00951 -0.00175509 0.0 
1.00911 -0.00120789 0.0 
0 0 0.0 
0 0 0.0 
0.835785 0.359232 0.0 
0.693878 -0.000469513 0.0 
0 0 0.0 
0 0 0.0 
0 0 0.0 
0 0 0.0 
0.433814 0.00434403 0.0 
0.590438 -0.228628 0.0 
0.05977 -0.0182415 0.0 
0 0 0.0 
0.00857504 0.000644672 0.0 
0.0049345 0.000462103 0.0 
1.00811 0 0.0 
0.24372 0.0110996 0.0 
1.60093e-14 -1.94955e-16 0.0 
0.706285 -0.000830118 0.0 
0.028044 -0.00242069 0.0 
0.0408852 -0.0162497 0.0 
0.344556 0.0279122 0.0 
1.00746 0 0.0 
0.707928 -0.114417 0.0 
0 0 0.0 
0.128553 -0.00885273 0.0 
0.867726 0.349075 0.0 
1.01079 -0.00219001 0.0 
0.788267 0.341508 0.0 
0.446864 -0.0383633 0.0 
0.00828359 -0.000495703 0.0 
1.00759 0.0034924 0.0 
1.00441 -0.00207156 0.0 
0.00356435 -0.000384265 0.0 
0.979392 0.00138154 0.0 
0.0249254 -0.00485645 0.0 
1.00664 -0.00012808 0.0 
1.00638 -0.00113227 0.0 
1.05086 0.18362 0.0 
0.670848 -0.082783 0.0 
0.933817 -0.234767 0.0 
0.000776362 -5.91239e-05 0.0 
0.0406927 0.00586939 0.0 
0.116655 0.00537786 0.0 
0.192545 -0.294036 0.0 
0.0618218 -0.00939166 0.0 
0.418347 0.0174352 0.0 
0.836855 0.001102 0.0 
1.00635 -0.00270463 0.0 
0.000229637 -5.71026e-06 0.0 
6.51634e-236 3.41991e-237 0.0 
1.00024 0.00139522 0.0 
0.00776522 0.000333394 0.0 
1.69081e-07 1.44601e-08 0.0 
0.737141 -0.0497499 0.0 
0.943783 0.155481 0.0 
0.00689471 0.000172273 0.0 
1.00773 0.00124041 0.0 
0.941449 0.125053 0.0 
0.346953 0.00365841 0.0 
0 0 0.0 
0.991067 0.0110915 0.0 
0.0241991 0.00185937 0.0 
0.362987 -0.00583841 0.0 
0.0642356 0.0141426 0.0 
0.609529 0.161949 0.0 
0.466288 0.013421 0.0 
0.991722 0.00218503 0.0 
1.00631 0 0.0 
0.19707 -0.026236 0.0 
0 0 0.0 
1.00776 -0.000576599 0.0 
1.00949 0 0.0 
0.851008 0.168138 0.0 
0.996518 -0.00570932 0.0 
0.910995 0.337396 0.0 
0.221837 0.0685746 0.0 
0.483388 -0.161697 0.0 
0.412244 0.00268939 0.0 
0.79943 0.0352595 0.0 
0.661311 0.154822 0.0 
0.00353292 0.000499383 0.0 
-3.78664e-86 -1.33485e-86 0.0 
0.581255 0.0827532 0.0 
7.15869e-08 2.80975e-09 0.0 
1.00575 -0.00367224 0.0 
0.265432 -0.0151293 0.0 
0.00892635 0.000285254 0.0 
-3.15865e-102 -6.50431e-104 0.0 
2.71032e-06 3.96032e-07 0.0 
1.00796 -0.0097738 0.0 
0.730893 0.332283 0.0 
0.094099 -0.0107842 0.0 
0.194897 0.0544016 0.0 
1.00255 -0.00408396 0.0 
0.306186 0.0420012 0.0 
0 0 0.0 
1.02103 -0.00653692 0.0 
0.00899775 -0.00290789 0.0 
1.00623 -0.000346475 0.0 
7.07451e-257 -2.7931e-258 0.0 
0.145397 -0.020885 0.0 
0 0 0.0 
0.334059 0.174499 0.0 
5.75543e-170 2.22762e-171 0.0 
0.801651 0.164487 0.0 
1 0 0.0 
0.016995 -0.000697875 0.0 
0.774637 -0.0837623 0.0 
0.0472851 -0.0118686 0.0 
0.945949 -0.0587692 0.0 
0.706649 0.0960081 0.0 
0.105591 0.0187762 0.0 
1.2713e-05 -5.6978e-07 0.0 
1.03025 0.213333 0.0 
0.0771454 -0.00649094 0.0 
0.987469 -0.00373775 0.0 
1.05254 -0.132277 0.0 
0.766759 0.372171 0.0 
0.908406 0.0114498 0.0 
1.01849 -0.0782617 0.0 
0.164584 -0.018496 0.0 
0.99824 0.000819187 0.0 
0.753902 -0.102067 0.0 
0.0172591 0.0010906 0.0 
0.17995 0.0236086 0.0 
0 0 0.0 
0 0 0.0 
0.369276 0.0471214 0.0 
0.0457304 -0.00321595 0.0 
0.777768 0.264174 0.0 
0.282975 0.0459951 0.0 
0.0024012 -0.000121998 0.0 
0.786238 -0.231648 0.0 
3.53707e-08 4.66386e-09 0.0 
1.00696 0.000465602 0.0 
0.946788 0.181702 0.0 
0.117707 -0.0032468 0.0 
7.86137e-247 4.89138e-248 0.0 
0.189437 0.0402384 0.0 
0.857685 -0.0505434 0.0 
0 0 0.0 
0.915634 -0.131071 0.0 
0 0 0.0 
0.265712 0.0169335 0.0 
0.973962 -0.0138709 0.0 
0.0631035 -0.0176599 0.0 
1.67931e-13 -1.65507e-14 0.0 
1.00298 0 0.0 
0.315591 0.0747316 0.0 
0.00335433 -0.000408387 0.0 
1.06512 0.189228 0.0 
0.673196 0.0994824 0.0 
1.10673 0.168558 0.0 
0.723981 0.121394 0.0 
1.05725 0.216697 0.0 
0.721479 0.156079 0.0 
2.49196e-12 6.68543e-16 0.0 
0.338462 -0.0470096 0.0 
0.999972 -0.00305606 0.0 
0.999373 -0.000593942 0.0 
0.791972 -0.0107199 0.0 
-1.15514e-54 -3.97593e-56 0.0 
1.00815 0.000145227 0.0 
1.01044 -0.000361644 0.0 
0.014953 -0.00720066 0.0 
1.01052 -0.00071607 0.0 
0.0431739 0.00194999 0.0 
0.878969 -0.0733639 0.0 
0.0787201 -0.0142965 0.0 
0.0109236 -0.000229696 0.0 
1.00899 0.0014624 0.0 
0.473476 0.331388 0.0 
0.761075 0.327645 0.0 
0.94694 -0.0519713 0.0 
0.0231584 -0.00480738 0.0 
0.621182 -0.0374753 0.0 
0.789559 0.165701 0.0 
2.06786e-14 -8.53723e-17 0.0 
0.00535201 0.000230064 0.0 
1.00002 0.000493996 0.0 
1.02576 0.0604623 0.0 
0.945222 -0.00435073 0.0 
1.00132 -0.143963 0.0 
0.738298 -0.0105607 0.0 
1.00725 -0.00013646 0.0 
0.0100984 -0.00111447 0.0 
0.609647 0.30539 0.0 
0.0149901 -0.000471643 0.0 
1.00852 0.00122833 0.0 
0.0872235 -0.00946303 0.0 
1.00201 0.00172203 0.0 
1.01081 -0.258431 0.0 
0.252971 0.00928694 0.0 
0.285486 -0.00416141 0.0 
0.111919 0.03619 0.0 
0.31799 0.0600825 0.0 
1.00974 -0.00103935 0.0 
0 0 0.0 
1.00049 -0.00046657 0.0 
1.00769 -0.00035351 0.0 
1.00202 -0.00037733 0.0 
-3.10872e-81 -8.2407e-82 0.0 
-8.05046e-84 -6.00508e-85 0.0 
0.919566 0.282714 0.0 
0.603007 0.336418 0.0 
0.999518 -0.00252611 0.0 
0.0489515 -0.117088 0.0 
0.00525524 0.000954363 0.0 
0.843133 -0.0293296 0.0 
0.620747 0.370482 0.0 
1.0169 -0.0432864 0.0 
0.47957 -0.446211 0.0 
1.00876 -0.00262226 0.0 
0.256437 -0.0269431 0.0 
0 0 0.0 
1.01632 -0.0101197 0.0 
0.0568833 0.0119289 0.0 
0.462479 -0.0139631 0.0 
0.953586 0.0609369 0.0 
0.0444595 -0.00692241 0.0 
0.398425 -0.147866 0.0 
0 0 0.0 
0.0559698 -0.000640086 0.0 
2.64897e-06 2.32572e-07 0.0 
0.114951 -0.0136692 0.0 
1.01277 -0.000417441 0.0 
0.255563 -0.022749 0.0 
1.05033 0.00211047 0.0 
1.01603 -0.18108 0.0 
0.424993 0.0143897 0.0 
2.25286e-298 1.65595e-299 0.0 
0.0120724 0.000833469 0.0 
0.124712 0.0176086 0.0 
1.00684 0.000218715 0.0 
0.595053 -0.347127 0.0 
1.91625e-107 3.40923e-108 0.0 
0.389554 -0.0248337 0.0 
0.338315 -0.0151451 0.0 
1.00851 0.000472478 0.0 
0.657402 -0.286203 0.0 
0.0103446 0.000479155 0.0 
0.63729 0.0892623 0.0 
1.00674 0.000344603 0.0 
0.079943 0.010184 0.0 
0.981099 -0.024396 0.0 
0.0167019 -0.00145355 0.0 
0.0920896 0.0997082 0.0 
1.00661 0 0.0 
0.935681 2.46396e-06 0.0 
0.198045 0.178733 0.0 
1.28346e-47 6.37571e-49 0.0 
0.121281 0.0110534 0.0 
0.123071 0.00182774 0.0 
-4.6139e-143 8.72428e-145 0.0 
-4.11633e-95 -2.21734e-95 0.0 
0.260123 -0.0288702 0.0 
0.0532433 -0.0021169 0.0 
0.00775965 0.000398063 0.0 
1.01029 0.000274383 0.0 
0.00942977 -0.000466309 0.0 
0.846222 -0.0159022 0.0 
0.0804016 -0.00808359 0.0 
1.00544 -0.000287317 0.0 
0 0 0.0 
0.311239 0.265296 0.0 
0.999495 0.00263124 0.0 
2.99279e-23 1.55608e-23 0.0 
0.719644 0.184579 0.0 
0.0130268 0.00107436 0.0 
0.759834 0.198633 0.0 
-3.33367e-55 4.76076e-56 0.0 
0.133232 0.00604271 0.0 
0 0 0.0 
-8.74157e-185 -2.09752e-185 0.0 
0.0171629 -0.000556023 0.0 
0.686652 -0.0463809 0.0 
0.770209 -0.00231811 0.0 
0.606691 0.315206 0.0 
0 0 0.0 
1.01495 0.001286 0.0 
0.460462 -0.19258 0.0 
1.00614 -0.000401589 0.0 
0.30554 0.0204221 0.0 
0 0 0.0 
0.00423346 -0.00065329 0.0 
0.00533173 0.000117453 0.0 
1 0 0.0 
0.129226 0.00774156 0.0 
1.00844 -0.000591996 0.0 
0.00115636 -0.000143877 0.0 
0 0 0.0 
0.646065 0.180652 0.0 
1.07376 -0.0967023 0.0 
1.04966 0.0740778 0.0 
1.00925 0 0.0 
1.00779 -0.00454246 0.0 
-9.91218e-118 -1.91296e-118 0.0 
1.00862 -0.0011494 0.0 
0.1568 -0.0163442 0.0 
0.643448 0.0459428 0.0 
1.01269 -0.0028855 0.0 
0.85306 -0.117747 0.0 
1.07941 -0.201648 0.0 
0.433071 0.110638 0.0 
0.00449314 0.000707152 0.0 
0.645321 -0.30556 0.0 
0.00492009 -0.00019422 0.0 
0.875837 -0.0114836 0.0 
1.00784 0.00155324 0.0 
0 0 0.0 
0.133619 0.0673896 0.0 
0.284108 0.00941125 0.0 
0.0833021 0.00717075 0.0 
-1.43713e-52 1.68318e-53 0.0 
0.00841582 0.000414114 0.0 
0.450718 -0.0045232 0.0 
0.078153 -0.0102506 0.0 
0.00624142 0.000651766 0.0 
0.111872 0.0155577 0.0 
0.343618 -0.0256068 0.0 
0.00666653 -0.000659301 0.0 
0.214745 -0.0313316 0.0 
0.5036 0.00930894 0.0 
0.871788 -0.317845 0.0 
0.709347 -0.378393 0.0 
1.0145 -0.000643357 0.0 
1.00722 0.000280826 0.0 
1.01288 -0.131694 0.0 
0.138738 0.00521318 0.0 
0 0 0.0 
0.528438 -0.0573557 0.0 
0.00628104 0.000440799 0.0 
0.999968 0.00201963 0.0 
2.26482e-22 2.09104e-23 0.0 
0.997993 -0.00215059 0.0 
0.00428353 0.000365782 0.0 
0.864235 -0.0955228 0.0 
0.716325 -0.267768 0.0 
1.00001 0.00108202 0.0 
0.1763 -0.0172065 0.0 
1.0003 0 0.0 
1.93679e-05 1.05628e-06 0.0 
0.8176 0.364287 0.0 
0 0 0.0 
0.715525 0.336868 0.0 
0.647328 0.256194 0.0 
0.1538 0.0213109 0.0 
0.711273 0.270842 0.0 
0.655536 0.115365 0.0 
1.00897 -0.000762914 0.0 
0.350141 0.240392 0.0 
0.275996 -0.347359 0.0 
4.29332e-39 -2.49243e-40 0.0 
0.0659597 -0.00168895 0.0 
0.378381 -0.00111637 0.0 
0.676209 0.241327 0.0 
1.04382 -0.0951364 0.0 
0.708262 0.375274 0.0 
2.55673e-98 -3.30033e-100 0.0 
0.607267 -0.0396866 0.0 
0.55709 -0.0638258 0.0 
0.539599 0.100219 0.0 
0.727396 0.308042 0.0 
1.00035 -0.000266413 0.0 
1.00192 -0.00279528 0.0 
0.344759 -0.0248166 0.0 
0.914361 0.033206 0.0 
0.608391 -0.292541 0.0 
4.00321e-276 5.18172e-276 0.0 
0.76181 0.305014 0.0 
0 0 0.0 
1.00981 0.000964717 0.0 
0.00216845 -0.000250436 0.0 
1 0 0.0 
-5.45559e-153 1.53303e-154 0.0 
0.782061 0.134961 0.0 
0.097437 0.00676039 0.0 
0.0359386 -0.0835351 0.0 
0.423998 -0.124184 0.0 
0.0161125 -0.0090156 0.0 
6.79089e-300 4.99161e-301 0.0 
0.579675 -0.434168 0.0 
-1.11077e-91 -2.12532e-92 0.0 
5.58619e-48 8.72174e-49 0.0 
0.448253 -0.10083 0.0 
0.540509 -0.03447 0.0 
0.0432137 0.01049 0.0 
0.00660875 -0.000755959 0.0 
0.00825215 -0.000412939 0.0 
1.00812 -0.00122799 0.0 
0.49592 0.106395 0.0 
0.439096 0.0246099 0.0 
0.0198749 0.000670404 0.0 
0.00896117 0.000286924 0.0 
0.999677 0.00042179 0.0 
0.0295249 -0.000298485 0.0 
2.41074e-37 1.95943e-38 0.0 
0 0 0.0 
1.00568 -0.000723537 0.0 
1.22416e-124 5.95964e-126 0.0 
0.0331718 -0.0118007 0.0 
1.00071 0.00351907 0.0 
1.01193 0.000648836 0.0 
0.609727 -0.464378 0.0 
1.00785 -0.000717729 0.0 
0.00642187 2.36701e-05 0.0 
0 0 0.0 
6.20478e-259 4.5608e-260 0.0 
0.485233 -0.0476839 0.0 
0.748421 0.277238 0.0 
0.137876 0.00728631 0.0 
2.21303e-34 9.86003e-35 0.0 
1.04156 0.0986522 0.0 
0.150486 0.017762 0.0 
0.122772 0.0196345 0.0 
0.935776 -0.098902 0.0 
-3.08521e-165 8.6695e-167 0.0 
1 0 0.0 
0.768418 0.364613 0.0 
0.746711 0.0632943 0.0 
2.57726e-26 7.67325e-29 0.0 
4.0917e-110 7.27962e-111 0.0 
0.863392 0.354206 0.0 
0.49335 -0.172382 0.0 
0.814156 0.35605 0.0 
0.0962811 0.00499057 0.0 
1.00938 -0.0017309 0.0 
0.9431 -0.334515 0.0 
1.01649 0.00388485 0.0 
0.746109 -0.0899713 0.0 
0.132033 0.00422692 0.0 
0.118548 0.0321961 0.0 
0.108056 -0.00841963 0.0 
1.0034 -0.00362193 0.0 
0 0 0.0 
0.220018 -0.0321917 0.0 
0.0725435 0.00427219 0.0 
0.415274 -0.00491873 0.0 
1.00831 -0.00218489 0.0 
0.0459977 -0.00983446 0.0 
0.406919 -0.00316629 0.0 
0.809833 0.12725 0.0 
0.999926 -0.00226674 0.0 
0.454754 -0.0474168 0.0 
0.434143 0.0524426 0.0 
2.83361e-13 2.32298e-14 0.0 
1.04278 -0.0402736 0.0 
0.726142 -0.0934815 0.0 
0.497236 -0.353728 0.0 
0.0251363 0.00675889 0.0 
0.278533 -0.0317541 0.0 
0.834611 0.276833 0.0 
0.038129 -0.00501339 0.0 
0.697611 -0.448874 0.0 
0.767591 0.0872421 0.0 
0.133528 -0.0764949 0.0 
0.454383 0.160375 0.0 
1.00593 -0.00032214 0.0 
1.0094 0.000144247 0.0 
0.999637 -0.00159232 0.0 
0.772319 -0.29026 0.0 
0.219463 0.00681464 0.0 
1.00094 -0.0453885 0.0 
1.00774 -0.000200769 0.0 
0.0508126 -0.000231068 0.0 
0.171574 0.012559 0.0 
0.823362 -0.109143 0.0 
0 0 0.0 
1.01072 2.28165e-05 0.0 
1.01178 -0.00122675 0.0 
0.1942 -0.0482283 0.0 
0.590668 0.0805243 0.0 
0.0430595 -0.0166946 0.0 
0.985472 -0.0292403 0.0 
3.28429e-235 1.72366e-236 0.0 
0.0667226 0.0359432 0.0 
0.892557 -0.301498 0.0 
-4.55437e-216 -2.76514e-216 0.0 
0.927247 7.36077e-05 0.0 
0.0061463 -0.000632073 0.0 
3.91668e-14 2.28982e-15 0.0 
1.39255e-13 1.28569e-14 0.0 
0.861729 0.258321 0.0 
0.219486 -0.0187311 0.0 
1.01308 -0.000383118 0.0 
1.00987 0.00112481 0.0 
0.0214741 -0.000564023 0.0 
0.570591 -0.0155608 0.0 
4.36257e-07 9.73791e-08 0.0 
0.965923 0.304947 0.0 
0 0 0.0 
0.975419 0.282818 0.0 
0.0046512 0.000130326 0.0 
0.447307 0.00134627 0.0 
0.132524 -0.0822767 0.0 
0.520213 0.0189775 0.0 
0.0355576 -0.00426055 0.0 
0.947807 -0.0454141 0.0 
0.439078 -0.115964 0.0 
1.00045 0.00515718 0.0 
0.999954 -0.0009383 0.0 
0 0 0.0 
0.323149 -0.202496 0.0 
0.973162 0.193904 0.0 
0 0 0.0 
0.0434038 -0.00130075 0.0 
1.01205 -0.294379 0.0 
1.00071 -0.000592707 0.0 
0.323344 0.165434 0.0 
0.889476 -0.0275254 0.0 
1.00578 -0.000654137 0.0 
-5.36377e-75 2.51076e-76 0.0 
0.108342 -0.00245681 0.0 
0.131704 0.03445 0.0 
0.00525116 -0.000382324 0.0 
0 0 0.0 
0.00775305 -0.00065999 0.0 
0.15093 -0.0109404 0.0 
1.00667 0.25663 0.0 
0.838315 0.199161 0.0 
0.950933 0.283312 0.0 
0.987639 -0.00228082 0.0 
0.940007 0.0316779 0.0 
0 0 0.0 
0.983038 0.0805212 0.0 
0.298987 -0.0259472 0.0 
0.00560685 0.000290572 0.0 
0.72707 0.191197 0.0 
1.0065 0 0.0 
0.677872 0.199064 0.0 
0.0485798 -0.00347079 0.0 
0.500579 0.151963 0.0 
1.00869 -0.00119747 0.0 
0.0144717 0.000633674 0.0 
0.868719 -0.26257 0.0 
4.38438e-29 3.75933e-29 0.0 
1.03624 -0.272961 0.0 
0.00807163 0.000812134 0.0 
1.5791e-08 -7.64852e-10 0.0 
0.604383 0.00636226 0.0 
0.592993 -0.072975 0.0 
1.27235e-165 -1.07945e-166 0.0 
1 1.18197e-39 0.0 
1.08764e-13 1.34112e-14 0.0 
0.536735 -0.062025 0.0 
8.59424e-17 2.19653e-18 0.0 
5.0419e-106 -1.04622e-106 0.0 
1.00434 0.00416401 0.0 
1.09305 -0.0962566 0.0 
1.00811 -0.0448857 0.0 
1.01163 -0.000810803 0.0 
-3.77722e-169 3.06487e-169 0.0 
0.828227 0.0629248 0.0 
1.06234 0.136068 0.0 
-1.5668e-191 -7.47012e-193 0.0 
0.888481 0.346056 0.0 
0.870797 -0.0443688 0.0 
0 0 0.0 
8.02611e-05 -8.71852e-07 0.0 
0.944061 -0.359622 0.0 
0.00767635 0.000171103 0.0 
1.5843e-290 1.16453e-291 0.0 
0.69321 -0.288922 0.0 
0 0 0.0 
1.00977 -0.00161993 0.0 
0.00701444 -0.000173146 0.0 
0 0 0.0 
0.620909 -0.446555 0.0 
0.00419437 0.000562905 0.0 
4.34516e-16 3.08532e-17 0.0 
0.161044 0.167891 0.0 
0.650565 0.277411 0.0 
0.0488547 -0.00518843 0.0 
0.921813 -0.303186 0.0 
1.00003 0.000514789 0.0 
0.745766 -0.428651 0.0 
0.823147 -0.119865 0.0 
0.0619718 -0.144973 0.0 
1.10203e-21 -3.53033e-22 0.0 
1.07154 -0.218324 0.0 
0.117782 -0.0214904 0.0 
0.819526 -0.24499 0.0 
0.905293 0.331704 0.0 
0.0375547 0.00371006 0.0 
0.999944 -0.000382135 0.0 
0.000169721 -1.21181e-05 0.0 
-4.08036e-160 1.14659e-161 0.0 
0.0332072 -0.0150536 0.0 
1.01718 -0.111386 0.0 
0.843921 -0.00886212 0.0 
0.802364 -0.352181 0.0 
-3.06795e-115 -5.90516e-116 0.0 
2.42192e-14 1.32993e-15 0.0 
0 0 0.0 
0.0029764 -0.000559407 0.0 
0.244739 0.00533469 0.0 
1.00245 0.152564 0.0 
1.00895 0.00896829 0.0 
0.645071 -0.00937993 0.0 
1.6587e-73 1.95198e-73 0.0 
1.00743 0.000149356 0.0 
0.997253 -0.00320764 0.0 
0.0655849 0.0108582 0.0 
1.00687 0.000331172 0.0 
1.00916 0.00086615 0.0 
1.40092e-12 1.19988e-13 0.0 
0 0 0.0 
3.00616e-68 4.83758e-69 0.0 
1.0085 0.000203848 0.0 
1.00051 0.000588499 0.0 
1.00877 0.000112756 0.0 
0.0254827 -0.013557 0.0 
1.01027 0.0014352 0.0 
1.06232 -0.0564474 0.0 
1.00427 0.00693724 0.0 
1.48507e-50 6.1949e-52 0.0 
0 0 0.0 
5.86085e-308 1e-307 0.0 
0.0156503 -0.00058577 0.0 
1.08892 -0.143287 0.0 
0.968713 -0.341669 0.0 
1.68879e-292 2.18595e-292 0.0 
0.207488 -0.0289564 0.0 
0.892402 -0.247496 0.0 
0.0814063 0.0150657 0.0 
0.00588754 -0.000600591 0.0 
0.849075 0.331509 0.0 
0.0120425 0.00117333 0.0 
0.000873195 -7.19572e-05 0.0 
1.00893 0.000725003 0.0 
1.02625 -0.00686106 0.0 
4.56828e-33 -4.38411e-34 0.0 
1.01035 0.270742 0.0 
0.561351 -0.208099 0.0 
0 0 0.0 
0.882848 0.341399 0.0 
0.805974 0.165318 0.0 
1.01154 -0.00216407 0.0 
0.842623 0.34576 0.0 
0.840832 0.322564 0.0 
0.846441 0.296943 0.0 
1.00854 -0.000985043 0.0 
0.294096 0.114626 0.0 
1.00001 -0.000534781 0.0 
0.880976 -0.0712757 0.0 
0.243128 0.238182 0.0 
3.65031e-08 5.05488e-10 0.0 
0.61619 -0.116867 0.0 
1.00519 0 0.0 
0.284634 0.0627379 0.0 
0.563707 0.0550121 0.0 
0.853374 0.192868 0.0 
1.00082 0 0.0 
1.00864 0.00136567 0.0 
0.158274 -0.251988 0.0 
0.244542 0.0442599 0.0 
0.0123823 0.00113127 0.0 
1.00016 -0.000656985 0.0 
0.209448 0.00240783 0.0 
1.01099 -0.00136324 0.0 
0 0 0.0 
0.00445827 0.000696679 0.0 
0.469261 -0.0382223 0.0 
0 0 0.0 
0.891782 -0.36874 0.0 
1.01165 0.00150218 0.0 
0.661984 0.00751116 0.0 
0.00191463 -0.000109871 0.0 
0.841058 0.341685 0.0 
2.22481e-79 4.48138e-80 0.0 
0.0725048 -0.00308404 0.0 
0.215328 0.216613 0.0 
0.353451 0.0905248 0.0 
0.148572 -0.0161915 0.0 
0.735588 0.301978 0.0 
6.71152e-263 4.93327e-264 0.0 
1.00144 0.00258135 0.0 
0.619584 0.0109145 0.0 
1.00055 0.00243572 0.0 
0.59476 -0.0265906 0.0 
1.12562 0.0961682 0.0 
0.716994 -0.109324 0.0 
0.35083 0.0507638 0.0 
0.445787 0.11835 0.0 
0.0753766 0.0155405 0.0 
0.859428 -0.40246 0.0 
0.226231 0.023777 0.0 
1.00771 0.000149201 0.0 
1.01002 0.00128781 0.0 
0.811036 0.104941 0.0 
0.0725358 -0.00823348 0.0 
0.185038 0.0191056 0.0 
0.0643792 -0.00782762 0.0 
0.678322 -0.367496 0.0 
1.00492 0.00113604 0.0 
0.00263423 0.000245075 0.0 
0.593685 -0.143003 0.0 
0.303159 -0.0279326 0.0 
0.308438 0.171177 0.0 
1.00724 -0.000803214 0.0 
0.841325 0.0234251 0.0 
1.00917 0.000719642 0.0 
0.339298 -0.244753 0.0 
1.00053 0.00426539 0.0 
0.0709362 0.00615107 0.0 
0.00177058 -0.000477074 0.0 
0.999952 -0.000491021 0.0 
1.00823 0.000684383 0.0 
1.0067 -0.000932753 0.0 
0.296387 0.175484 0.0 
5.22172e-21 -5.28366e-22 0.0 
0.112616 0.00183428 0.0 
0.311592 -0.262444 0.0 
0.909235 0.0155545 0.0 
1.01034 -0.00174086 0.0 
1.00498 -0.00287435 0.0 
5.54473e-115 -1.18121e-116 0.0 
1.01433 0.11487 0.0 
0.470117 -0.0257512 0.0 
1.00859 -0.00139576 0.0 
0.318155 0.272308 0.0 
0.0377032 -0.00866889 0.0 
0.0161179 0.00182837 0.0 
0.635352 -0.00290512 0.0 
-2.37242e-98 -4.52526e-99 0.0 
0.985111 -0.0309328 0.0 
0.887679 0.0540274 0.0 
0.225664 -0.0601332 0.0 
0.00257558 0.000371712 0.0 
0.0125366 0.000580574 0.0 
0.719631 0.0615522 0.0 
0.610407 -0.0170339 0.0 
-1.3928e-56 -2.80543e-57 0.0 
0.517337 -0.255324 0.0 
1.82147e-13 2.57298e-13 0.0 
0.495811 0.231397 0.0 
0.526776 0.0956826 0.0 
1.00748 0.000335714 0.0 
0.982125 0.175275 0.0 
-1.28733e-187 -3.08893e-188 0.0 
-2.3503e-103 1.08663e-104 0.0 
1.0105 0.00483557 0.0 
-8.08522e-159 -1.01905e-158 0.0 
1.0056 0.00751523 0.0 
1.0073 -0.00028061 0.0 
0.877329 -0.259613 0.0 
0.998846 -0.000155332 0.0 
0.262474 -0.018072 0.0 
1.06242 0.0651757 0.0 
0 0 0.0 
4.29397e-05 -7.59013e-06 0.0 
0.324674 0.109631 0.0 
0.261099 0.0110517 0.0 
1.52441e-07 -2.88235e-09 0.0 
0.0826935 0.00682201 0.0 
0.782346 0.291839 0.0 
1.00753 0.000798513 0.0 
0.16535 0.0177449 0.0 
1.06734 -0.122966 0.0 
1.00205 -0.099619 0.0 
1.37714e-113 5.47311e-114 0.0 
0 0 0.0 
0.108512 -0.021493 0.0 
0.528014 -0.153381 0.0 
1.00797 0.000912448 0.0 
0.0231849 -0.00468284 0.0 
1.41771e-05 9.08203e-07 0.0 
0.000101719 6.67143e-06 0.0 
1.00387 0.00268248 0.0 
0.040685 -0.000238429 0.0 
0.0228315 0.00143399 0.0 
0.287291 -0.0316909 0.0 
0.718348 0.219443 0.0 
0.906511 -0.391321 0.0 
1.7074e-303 1.25501e-304 0.0 
0.838505 -0.332078 0.0 
0.00459269 0.000553372 0.0 
0.119605 0.0113645 0.0 
0.763737 -0.331996 0.0 
1.00658 -0.000335138 0.0 
1.01506 0.00248827 0.0 
0.727866 0.0573576 0.0 
1.0102 -0.00130003 0.0 
0.837364 -0.139468 0.0 
1.12796 0.049695 0.0 
0.858476 -0.0492644 0.0 
-1.14306e-51 -1.34686e-52 0.0 
1.00925 0.000228306 0.0 
-8.88301e-91 -9.33651e-92 0.0 
0.317259 0.108121 0.0 
0.028798 0.00898314 0.0 
1.00838 -0.00114205 0.0 
0.237964 -0.023276 0.0 