<VTKFile type="UnstructuredGrid" version="0.1" byte_order="LittleEndian">
  <UnstructuredGrid>
    <Piece NumberOfPoints="12803" NumberOfCells="25445">
      <Points>
        <DataArray type = "Float64" NumberOfComponents="3" format="ascii">
0 0 0.0 
14 0 0.0 
14 8 0.0 
0 8 0.0 
4.16782 4.09801 0.0 
4.12102 4.0519 0.0 
3.96005 4.10912 0.0 
5.06876 4.0204 0.0 
4.09208 3.95602 0.0 
4.7519 4.03879 0.0 
4.33592 4.0755 0.0 
4.25614 4.06832 0.0 
4.97448 3.99692 0.0 
3.96554 4.00011 0.0 
4.98208 4.00532 0.0 
4.26328 3.91582 0.0 
4.24217 3.88783 0.0 
4.18238 3.96351 0.0 
9.50544 0.554648 0.0 
4.01323 3.99894 0.0 
4.91415 3.80242 0.0 
4.25007 4.10489 0.0 
4.17926 4.05465 0.0 
4.71752 3.98428 0.0 
4.18261 4.06656 0.0 
4.0106 4.0844 0.0 
4.51594 3.97533 0.0 
9.40261 1.25813 0.0 
4.15953 4.06373 0.0 
4.96284 4.02182 0.0 
4.36723 4.05555 0.0 
4.0018 3.99395 0.0 
6.60327 3.80911 0.0 
5.0047 4.00229 0.0 
11.025 6.86166 0.0 
3.98473 3.92971 0.0 
4.17759 3.97818 0.0 
4.09533 4.03459 0.0 
4.00922 3.99881 0.0 
2.55916 5.71092 0.0 
13.1168 3.7872 0.0 
2.56604 7.44797 0.0 
1.36416 3.96162 0.0 
4.07632 3.97116 0.0 
4.64853 3.96073 0.0 
3.93682 3.99751 0.0 
4.11094 4.03801 0.0 
11.4161 3.80483 0.0 
4.9446 4.01112 0.0 
4.19353 4.07857 0.0 
4.08322 4.04402 0.0 
4.85309 4.00911 0.0 
4.19813 3.9367 0.0 
3.99561 3.97379 0.0 
4.01706 3.99618 0.0 
4.02815 4.04832 0.0 
3.96023 4.01528 0.0 
4.12731 4.12508 0.0 
4.0634 4.04854 0.0 
4.09373 4.04664 0.0 
4.45044 4.06666 0.0 
11.1918 3.98576 0.0 
4.0052 4.01095 0.0 
4.01599 4.02386 0.0 
4.21765 3.94275 0.0 
4.61386 4.06549 0.0 
4.01647 3.99236 0.0 
4.18458 4.04429 0.0 
4.83273 3.99085 0.0 
4.74077 4.04071 0.0 
9.779 0.219905 0.0 
4.0339 4.05256 0.0 
4.01921 3.99337 0.0 
4.97486 4.02609 0.0 
3.99379 4.00703 0.0 
4.37427 4.0854 0.0 
4.0229 4.0327 0.0 
4.17785 3.95317 0.0 
4.74274 3.98668 0.0 
5.00785 4.00312 0.0 
10.8833 7.73481 0.0 
5.39645 2.58735 0.0 
14 6.11123 0.0 
3.99129 4.00357 0.0 
4.59351 4.05592 0.0 
3.96293 3.99513 0.0 
6.95257 3.91393 0.0 
4.82599 4.03005 0.0 
4.36027 4.08767 0.0 
4.5171 4.66672 0.0 
5.00924 4.08774 0.0 
3.88293 4.06948 0.0 
4.14183 3.94415 0.0 
4.93392 4.05029 0.0 
4.04894 3.98469 0.0 
4.14048 3.9673 0.0 
3.99922 3.99464 0.0 
5.03684 4.01469 0.0 
4.84481 4.02752 0.0 
4.25508 4.06016 0.0 
5.64923 4.12461 0.0 
3.99114 3.95851 0.0 
4.11521 4.05304 0.0 
4.20263 4.07568 0.0 
14 5.21618 0.0 
5.02189 4.01094 0.0 
10.5039 7.07557 0.0 
4.61894 3.98058 0.0 
4.28749 4.07809 0.0 
3.94943 3.96456 0.0 
4.02004 4.03743 0.0 
4.76751 4.0543 0.0 
4.80536 4.01156 0.0 
4.15922 4.00364 0.0 
5.012 4.10727 0.0 
4.24578 4.08867 0.0 
4.35343 3.94951 0.0 
4.06238 3.97371 0.0 
4.06146 4.03951 0.0 
4.35336 4.06184 0.0 
14 1.82768 0.0 
3.05817 4.59047 0.0 
4.34569 4.08404 0.0 
4.56813 4.059 0.0 
4.37798 8 0.0 
4.12623 4.0709 0.0 
4.08373 4.05666 0.0 
4.09568 4.05562 0.0 
4.75199 3.98675 0.0 
6.69489 6.95742 0.0 
4.27852 0 0.0 
5.04845 4.04311 0.0 
4.29262 4.07791 0.0 
4.59921 4.06713 0.0 
3.93714 4.10335 0.0 
4.13434 4.07811 0.0 
4.09805 3.948 0.0 
4.08152 4.04701 0.0 
4.09374 3.85313 0.0 
4.70266 8 0.0 
10.1584 2.49324 0.0 
1.42766 7.23915 0.0 
4.36135 4.07164 0.0 
4.35017 3.94589 0.0 
9.95529 0.776257 0.0 
4.22225 3.98357 0.0 
4.05308 3.97209 0.0 
5.52872 3.97338 0.0 
4.1741 4.07586 0.0 
4.69485 3.98494 0.0 
4.01058 4.0163 0.0 
12.7254 2.64904 0.0 
4.0293 3.98313 0.0 
3.95829 3.91814 0.0 
4.32406 4.07266 0.0 
3.91267 2.38613 0.0 
4.02873 4.0411 0.0 
4.88146 4.04087 0.0 
4.89917 3.99319 0.0 
4.08859 4.05676 0.0 
4.0826 3.93583 0.0 
4.89715 4.11448 0.0 
4.12124 3.98374 0.0 
4.04315 3.97489 0.0 
4.04989 4.09232 0.0 
3.97328 4.0842 0.0 
9.3283 1.96676 0.0 
4.24743 3.99271 0.0 
4.36351 3.97049 0.0 
4.99458 4.03862 0.0 
10.3345 3.86203 0.0 
4.02244 4.02798 0.0 
4.9802 3.99701 0.0 
4.12635 4.07409 0.0 
0 1.4212 0.0 
4.25778 4.0794 0.0 
4.34913 3.97063 0.0 
4.15124 4.04466 0.0 
4.9614 3.98808 0.0 
4.05175 3.95375 0.0 
4.9682 3.99645 0.0 
4.62059 4.08532 0.0 
4.9908 4.01037 0.0 
5.01259 4.00155 0.0 
4.0644 3.93891 0.0 
4.00891 4.00797 0.0 
4.16503 4.11076 0.0 
9.81916 4.81287 0.0 
4.12755 3.9649 0.0 
8.03982 0.739812 0.0 
4.19206 3.91938 0.0 
4.16432 3.95432 0.0 
4.41558 4.05658 0.0 
4.09641 3.95124 0.0 
4.12454 3.92729 0.0 
4.08491 4.0641 0.0 
3.96293 4.03138 0.0 
4.77504 4.05583 0.0 
4.06298 3.99231 0.0 
4.35916 4.0592 0.0 
4.01234 4.02852 0.0 
4.96493 4.00845 0.0 
4.83199 4.02908 0.0 
3.99252 4.00665 0.0 
4.64871 4.09228 0.0 
4.17636 4.06982 0.0 
4.01378 4.004 0.0 
4.03939 4.03222 0.0 
3.94066 3.96869 0.0 
13.8157 6.13911 0.0 
3.95819 3.97698 0.0 
9.96819 3.66683 0.0 
4.83055 4.02823 0.0 
4.23165 4.07938 0.0 
4.38965 4.07646 0.0 
4.15636 4.04974 0.0 
3.95778 3.98461 0.0 
2.7796 2.2862 0.0 
3.9419 3.97853 0.0 
4.19057 4.05281 0.0 
4.14899 4.06153 0.0 
4.10081 3.94382 0.0 
4.10495 3.96896 0.0 
4.56131 1.56989 0.0 
6.88398 4.79117 0.0 
3.99651 4.05409 0.0 
4.18123 4.0633 0.0 
4.22913 4.08121 0.0 
5.00368 4.02219 0.0 
5.36747 1.46191 0.0 
3.9771 4.03148 0.0 
2.88794 2.91404 0.0 
4.34707 4.05408 0.0 
4.25731 4.0827 0.0 
4.15561 4.10177 0.0 
4.18309 4.12442 0.0 
3.96476 4.03852 0.0 
4.39631 4.08365 0.0 
0.293813 2.30474 0.0 
3.96822 4.02719 0.0 
3.97233 4.04194 0.0 
3.98573 3.91699 0.0 
10.7485 5.34397 0.0 
8.82805 7.39799 0.0 
4.20876 3.92492 0.0 
3.92251 4.00785 0.0 
5.2424 4.03071 0.0 
4.30929 4.04286 0.0 
7.65447 4.16911 0.0 
5.15491 3.95658 0.0 
4.27681 4.06756 0.0 
3.96814 3.94854 0.0 
1.65747 3.8773 0.0 
13.0314 2.11245 0.0 
4.92874 4.01372 0.0 
3.94564 3.99975 0.0 
5.8176 3.84856 0.0 
4.17627 3.96544 0.0 
4.00612 4.04547 0.0 
5.0401 4.02083 0.0 
4.98371 4.01321 0.0 
4.27571 4.05016 0.0 
7.90242 7.80757 0.0 
4.67359 6.29228 0.0 
3.92289 3.95232 0.0 
4.5856 4.05753 0.0 
4.04955 3.95606 0.0 
4.51559 4.0626 0.0 
4.36888 4.08399 0.0 
4.1384 3.95607 0.0 
4.08583 4.02136 0.0 
3.16595 3.27698 0.0 
4.40697 4.07911 0.0 
4.14584 4.05809 0.0 
4.05428 3.94079 0.0 
9.70989 7.75915 0.0 
12.8718 1.38827 0.0 
4.02341 4.03456 0.0 
3.97235 3.97115 0.0 
4.52724 7.41561 0.0 
5.05919 4.01855 0.0 
11.9168 2.40447 0.0 
4.60091 4.05586 0.0 
4.22714 3.92146 0.0 
4.25738 4.07615 0.0 
4.26946 3.96758 0.0 
4.64245 3.98171 0.0 
4.58673 3.97958 0.0 
4.01726 4.00142 0.0 
4.05548 4.03482 0.0 
4.06103 3.9941 0.0 
4.05292 4.05778 0.0 
1.24078 0.550265 0.0 
1.50573 1.30828 0.0 
2.38032 0.204862 0.0 
4.23309 3.95089 0.0 
9.1005 7.43296 0.0 
4.47772 4.06522 0.0 
4.26148 3.94171 0.0 
4.04049 3.979 0.0 
4.01517 4.03055 0.0 
3.98196 3.98783 0.0 
3.99882 3.99972 0.0 
4.67003 4.04888 0.0 
4.02169 4.00411 0.0 
5.1555 4.17357 0.0 
4.72701 3.98538 0.0 
3.99908 3.98836 0.0 
11.1857 5.04349 0.0 
4.12151 3.94609 0.0 
12.9735 2.89803 0.0 
4.4138 3.97245 0.0 
4.27111 3.9672 0.0 
4.09399 3.96962 0.0 
5.01331 3.98969 0.0 
4.97222 4.02124 0.0 
4.12765 3.95773 0.0 
4.21664 3.9481 0.0 
6.25452 4.08467 0.0 
0.200421 3.56975 0.0 
3.91286 4.09526 0.0 
4.01874 3.97656 0.0 
3.90486 4.17864 0.0 
4.2027 3.96543 0.0 
4.80599 3.99038 0.0 
5.1327 4.04445 0.0 
4.99606 4.00337 0.0 
4.13949 4.14563 0.0 
7.86656 3.48607 0.0 
4.47779 4.09651 0.0 
3.96385 4.09253 0.0 
4.59772 3.91409 0.0 
4.07683 3.96993 0.0 
3.9901 3.98452 0.0 
4.12408 3.94161 0.0 
5.06164 4.02608 0.0 
3.92977 4.00134 0.0 
4.0361 4.22831 0.0 
7.84025 3.0865 0.0 
4.08139 3.94144 0.0 
4.05431 3.98692 0.0 
4.03513 3.9876 0.0 
4.00131 3.99967 0.0 
4.52449 4.30955 0.0 
4.70062 3.984 0.0 
4.41372 3.95636 0.0 
4.11441 3.96795 0.0 
4.12434 4.06442 0.0 
4.04162 4.00806 0.0 
4.32504 4.05592 0.0 
4.9749 3.97836 0.0 
7.34181 3.93409 0.0 
8.9323 8 0.0 
4.20446 4.06376 0.0 
3.59386 3.60045 0.0 
4.17984 4.07874 0.0 
4.02433 3.97472 0.0 
3.93472 3.98311 0.0 
4.17859 4.06406 0.0 
3.99135 4.00607 0.0 
4.20396 4.03825 0.0 
4.2489 4.09629 0.0 
5.06347 3.99507 0.0 
4.13541 3.96688 0.0 
4.2295 4.0772 0.0 
10.4318 2.43366 0.0 
5.08198 4.04957 0.0 
5.02947 4.00625 0.0 
4.78384 4.03621 0.0 
11.315 5.3348 0.0 
4.08853 4.04716 0.0 
4.39092 4.05736 0.0 
3.8259 6.19389 0.0 
4.37247 3.94474 0.0 
3.93348 4.0829 0.0 
4.01421 4.01997 0.0 
4.33819 4.07103 0.0 
7.9983 4.37747 0.0 
3.99883 4.01382 0.0 
7.49814 1.66258 0.0 
4.95303 4.02378 0.0 
4.14366 4.0461 0.0 
11.8467 7.80818 0.0 
4.48228 4.06526 0.0 
4.01165 4.04753 0.0 
4.00756 4.02287 0.0 
3.8359 4.02454 0.0 
4.20227 4.08039 0.0 
4.23985 4.08128 0.0 
4.87039 4.05396 0.0 
4.13725 3.99035 0.0 
4.32751 4.07274 0.0 
4.10203 3.95404 0.0 
3.99752 4.02893 0.0 
4.01884 3.99521 0.0 
4.26259 4.0847 0.0 
4.15582 4.07076 0.0 
4.00435 3.99818 0.0 
4.00958 3.9879 0.0 
4.1339 4.047 0.0 
9.8481 2.57901 0.0 
4.34889 4.1205 0.0 
4.01204 4.00974 0.0 
4.9921 3.96662 0.0 
4.45793 3.97386 0.0 
3.99956 4.01717 0.0 
4.08637 3.98671 0.0 
8.1554 7.24604 0.0 
8.76063 4.31545 0.0 
2.84695 6.56376 0.0 
11.5292 3.58171 0.0 
5.06785 4.12387 0.0 
4.057 4.03626 0.0 
4.22135 3.95386 0.0 
5.93854 4.53456 0.0 
4.0911 3.98345 0.0 
4.14295 3.97632 0.0 
4.07491 3.97022 0.0 
4.33145 3.96911 0.0 
4.07783 4.0338 0.0 
4.2792 4.0666 0.0 
5.0218 3.98124 0.0 
4.21646 4.06517 0.0 
4.19507 4.0651 0.0 
4.0766 3.95386 0.0 
5.10311 4.0306 0.0 
7.09541 4.12684 0.0 
3.02372 4.03908 0.0 
4.65628 3.98256 0.0 
4.10808 3.96074 0.0 
4.08645 3.96932 0.0 
4.78798 4.06707 0.0 
3.98027 4.05285 0.0 
4.26993 4.09614 0.0 
4.97144 3.99637 0.0 
8.93902 4.61589 0.0 
4.1973 4.05198 0.0 
8.95056 3.61413 0.0 
4.22898 4.08419 0.0 
4.04077 3.99338 0.0 
0.466363 1.55134 0.0 
4.91843 3.97871 0.0 
4.10231 3.92419 0.0 
4.63925 4.03951 0.0 
13.1066 7.48347 0.0 
4.38318 4.05579 0.0 
3.88075 3.94894 0.0 
13.4588 2.01213 0.0 
4.35126 3.96931 0.0 
4.11849 4.05832 0.0 
4.26735 4.06734 0.0 
4.2077 4.08253 0.0 
3.89921 4.07705 0.0 
5.18793 4.05304 0.0 
9.29063 5.20783 0.0 
4.00774 3.99043 0.0 
4.3981 3.94187 0.0 
4.03016 3.93429 0.0 
3.98111 4.00805 0.0 
4.14254 4.03376 0.0 
4.03664 4.0119 0.0 
4.60157 3.95855 0.0 
3.99352 3.97666 0.0 
4.17387 3.91323 0.0 
3.84347 2.0849 0.0 
4.67002 3.84867 0.0 
4.05693 3.98896 0.0 
3.98468 3.9804 0.0 
4.27492 4.05293 0.0 
4.05345 4.03943 0.0 
4.00484 3.99321 0.0 
4.03727 3.97926 0.0 
7.78041 2.39625 0.0 
10.4892 4.55037 0.0 
[...]
<PointData>
  <DataArray type = "Float64" Name="Vitesse" NumberOfComponents="3" format="ascii">
1 0 0.0 
1.00142 0 0.0 
0.999543 0 0.0 
1 0 0.0 
1.02995 0.17215 0.0 
3.95211e-06 5.77557e-07 0.0 
0.88294 0.144199 0.0 
0.0995536 -0.00984153 0.0 
0.622504 -0.0814468 0.0 
5.20252e-24 -4.61788e-25 0.0 
0.15812 0.00190386 0.0 
0.0495177 0.00247089 0.0 
0.0099703 0.000402934 0.0 
0.646371 -0.058383 0.0 
0.00244698 -0.000460265 0.0 
0.963662 -0.0427342 0.0 
1.09395 -0.0687721 0.0 
0.107147 -0.00152355 0.0 
1.00699 0.000560692 0.0 
0 0 0.0 
1.05119 0.0167138 0.0 
0.948344 0.0971526 0.0 
0 0 0.0 
0.0128916 0.000783539 0.0 
0.223231 0.0252752 0.0 
0.884698 0.244944 0.0 
0.0112587 0.000779954 0.0 
1.00735 0.0011847 0.0 
0.238743 0.0319082 0.0 
0.0417495 -0.00614728 0.0 
0 0 0.0 
0.0946249 -0.146525 0.0 
0.993898 0.00501127 0.0 
0.0182101 -0.00529 0.0 
1.0024 -0.00236108 0.0 
0.897807 -0.21251 0.0 
0 0 0.0 
0 0 0.0 
0 0 0.0 
1.00132 0.00610104 0.0 
0.999446 0.00312907 0.0 
1.00297 0.00133681 0.0 
0.998852 0.000348101 0.0 
0.0658184 -0.0112844 0.0 
0.241419 0.00920728 0.0 
0.763753 -0.0385876 0.0 
0 0 0.0 
0.981204 0.0113152 0.0 
0.000997814 -0.000115366 0.0 
0.568591 0.0727322 0.0 
2.11996e-67 3.43673e-68 0.0 
-2.65705e-77 3.39871e-78 0.0 
0.756335 -0.0415761 0.0 
0.747607 -0.384172 0.0 
0 0 0.0 
0.835447 0.359532 0.0 
0.678511 0.0254584 0.0 
1.07158 0.203001 0.0 
0.541629 0.166888 0.0 
3.61286e-18 1.10405e-18 0.0 
0.00688405 -0.000332094 0.0 
0.938582 0.00129295 0.0 
1.56376e-26 1.63542e-26 0.0 
0.309229 0.171828 0.0 
0.586989 -0.0211028 0.0 
0.114977 -0.0088471 0.0 
0 0 0.0 
0 0 0.0 
0.00405163 0.000422194 0.0 
2.29948e-05 -1.42424e-06 0.0 
1.00661 0.000246755 0.0 
0.868108 0.349593 0.0 
0 0 0.0 
0.0666412 -0.0101039 0.0 
0.253691 0.0705851 0.0 
0.356314 0.00401516 0.0 
0.553356 0.282425 0.0 
0.396446 -0.0166414 0.0 
2.85151e-05 2.02678e-06 0.0 
0.0247165 -0.00487576 0.0 
1.00283 -0.000487909 0.0 
1.01526 6.67649e-05 0.0 
0.999118 -0.000123923 0.0 
0.29821 -0.047472 0.0 
9.55095e-11 -7.31993e-12 0.0 
0.671359 -0.0820173 0.0 
0.811386 0.00590481 0.0 
0.00384951 -0.000496082 0.0 
0.415089 0.00752813 0.0 
1.04566 0.0195656 0.0 
0.567074 -0.0449758 0.0 
0.870312 0.050524 0.0 
0.742737 -0.0649474 0.0 
0.192068 -0.0201401 0.0 
1e-307 1e-307 0.0 
0.0367285 0.000962963 0.0 
0.198824 -0.293939 0.0 
0.0617758 -0.00942753 0.0 
0.00377383 -0.000541256 0.0 
1.60165e-22 1.03099e-23 0.0 
0.874304 -0.0229573 0.0 
0.828887 -0.293613 0.0 
0.101936 0.0216551 0.0 
0.442712 0.0513827 0.0 
0.998824 0.000525058 0.0 
0.0435153 -0.00941158 0.0 
1.00365 -0.00189749 0.0 
0.00545483 0.000696751 0.0 
0.274454 0.010926 0.0 
0.79474 -0.130848 0.0 
0.715449 0.35942 0.0 
0.117745 -0.0117556 0.0 
0 0 0.0 
5.90234e-279 1.62577e-280 0.0 
0.739477 -0.0498377 0.0 
0.651257 0.0601307 0.0 
0.347912 0.0039533 0.0 
0.0501517 -0.00704716 0.0 
0.0757877 0.0258851 0.0 
-9.12215e-186 -3.008e-187 0.0 
1.00094 0.00106841 0.0 
0.99142 0.0112643 0.0 
0.347754 0.00657587 0.0 
0.00700823 -0.00107065 0.0 
1.00773 0 0.0 
0.718473 0.145447 0.0 
0.609303 0.16234 0.0 
0.434654 0.108617 0.0 
0.00512396 0.000701042 0.0 
1.00969 -0.000890714 0.0 
1.00618 0 0.0 
0.197427 -0.0263099 0.0 
0.260124 0.0109703 0.0 
0.123741 -0.00907619 0.0 
0.875103 0.115677 0.0 
0.85234 0.168096 0.0 
0.835502 -0.115955 0.0 
0.200043 0.045764 0.0 
1.05172 -0.132187 0.0 
1.00833 0 0.0 
1.00901 0.00358443 0.0 
1.00082 0.000962483 0.0 
0.0660197 0.00183668 0.0 
0.413399 0.00295108 0.0 
1.00653 0.000933121 0.0 
0 0 0.0 
0.221354 -0.0459422 0.0 
0.45181 0.0118107 0.0 
0.580367 0.0819532 0.0 
1.00351e-10 6.70081e-12 0.0 
-8.01071e-32 -5.83318e-32 0.0 
0.999711 0.0027073 0.0 
-4.62729e-166 1.8185e-166 0.0 
0.89175 -0.15503 0.0 
0.0951847 0.00281016 0.0 
1.00785 -0.00955658 0.0 
0.732221 0.332575 0.0 
0.0937754 -0.0107018 0.0 
0.0104051 0.000491451 0.0 
0.558528 0.14417 0.0 
1.06198 -0.191933 0.0 
0.778511 -0.045664 0.0 
0 0 0.0 
0.173388 -0.0479286 0.0 
0.970183 0.267576 0.0 
0.846139 0.172599 0.0 
1.00805 0.00158782 0.0 
0 0 0.0 
0.00730574 0.000477903 0.0 
0.145545 -0.0209045 0.0 
0.90029 0.000748023 0.0 
0.335595 0.176566 0.0 
0.0115678 0.000743033 0.0 
0.802936 0.165339 0.0 
1 0 0.0 
0.373669 0.0276514 0.0 
1.18532e-14 4.1725e-16 0.0 
-2.81146e-114 -4.81637e-115 0.0 
0.0869249 0.00446216 0.0 
0.964373 -0.236742 0.0 
0.0113901 0.000883583 0.0 
0.373202 -0.020488 0.0 
0.0196687 -0.00527471 0.0 
0.037153 0.000463833 0.0 
1.06083 -0.227668 0.0 
-4.4557e-80 -3.38239e-80 0.0 
1.09209 0.184936 0.0 
1.01009 -0.00639391 0.0 
0.141901 -0.0100434 0.0 
1.008 0.000300362 0.0 
1.01868 -0.0784376 0.0 
0.391092 -0.0192236 0.0 
-8.15418e-188 -2.68882e-189 0.0 
0.753599 -0.101607 0.0 
1.0542 -0.134395 0.0 
0.824149 0.22522 0.0 
0.707052 0.0966273 0.0 
0.135919 -0.0133093 0.0 
0 0 0.0 
0 0 0.0 
0.582473 0.343947 0.0 
0.00262301 -0.000448785 0.0 
0.00288823 -0.000244072 0.0 
0.283687 0.0467235 0.0 
0.478246 -0.0249311 0.0 
0.370296 0.0476172 0.0 
0 0 0.0 
0.110265 0.0491734 0.0 
0.797889 -0.105812 0.0 
0.999072 -0.000218717 0.0 
0.743062 -0.134784 0.0 
1.00677 -0.00175084 0.0 
1.58824e-13 -1.27249e-14 0.0 
0.44606 0.0407062 0.0 
0.163371 -0.000782169 0.0 
0 0 0.0 
0.720345 -0.112152 0.0 
1.00112 -0.0054964 0.0 
0.775647 -0.0906553 0.0 
0 0 0.0 
0.214865 0.0331028 0.0 
0.915619 -0.130919 0.0 
0.0505463 -0.00554807 0.0 
1.00903 -0.00341251 0.0 
1.01061 -0.00601409 0.0 
0.777329 0.26337 0.0 
0.111639 0.0113579 0.0 
0.506796 0.0485472 0.0 
0.0631147 -0.017632 0.0 
1.00999 -0.00114491 0.0 
0.661919 0.155772 0.0 
0.997974 -0.00745636 0.0 
0 0 0.0 
0.465759 0.0362983 0.0 
1.06812 0.1915 0.0 
1.1076 0.16844 0.0 
0.724299 0.122026 0.0 
0.308216 0.000112523 0.0 
0.999995 -0.000270734 0.0 
0.673848 0.100047 0.0 
0.721838 0.156641 0.0 
0.919586 -0.194905 0.0 
1.00033 -0.00882975 0.0 
1.00671 -0.000943917 0.0 
0.933981 -0.0581439 0.0 
0.793213 -0.0100923 0.0 
0.247767 -0.0121988 0.0 
0 0 0.0 
0.948558 -0.00706312 0.0 
0.448606 0.0287617 0.0 
1.87483e-06 1.46822e-07 0.0 
0.832606 -0.192135 0.0 
0.998233 0.00022274 0.0 
1.00144 0.00189244 0.0 
0.00115434 -0.000135063 0.0 
0.736729 -0.0389006 0.0 
0.974638 0.0130633 0.0 
0.0601851 0.000321295 0.0 
0.761762 0.328179 0.0 
0.0775907 -0.014103 0.0 
0.023032 -0.00472886 0.0 
0 0 0.0 
1.00792 -0.00021332 0.0 
1.01233 0.00358377 0.0 
0.843508 -0.0939356 0.0 
0.00507977 -0.000173885 0.0 
0.934089 -0.234522 0.0 
0.00650315 0.000105099 0.0 
0.329086 0.00413916 0.0 
0.406246 -0.0277452 0.0 
0 0 0.0 
0.993881 -0.0110899 0.0 
0.215143 -0.00200615 0.0 
0.0952191 0.0155292 0.0 
1.05482 -0.249449 0.0 
1.00511 -0.000453122 0.0 
1.00194 0.00147078 0.0 
0.611209 0.306638 0.0 
0.741016 -0.20667 0.0 
1.00843 0.00116339 0.0 
0.0872092 -0.0094953 0.0 
1.00271 0.00438286 0.0 
0.00448152 -0.000217374 0.0 
0.94674 -0.0531899 0.0 
0.282067 0.0198376 0.0 
0.0124361 8.08952e-05 0.0 
0.00517918 0.00070788 0.0 
-5.03012e-33 -5.56915e-34 0.0 
0 0 0.0 
5.28905e-20 1.73136e-20 0.0 
0 0 0.0 
0.886003 0.30802 0.0 
1.00049 -0.000460895 0.0 
1.00055 -0.00130686 0.0 
1.002 -0.000370049 0.0 
0.3773 -0.00650284 0.0 
1.00628 -0.000961402 0.0 
0.00768263 0.00012129 0.0 
0.549567 -0.0106923 0.0 
-1.12683e-154 3.32062e-155 0.0 
0.60364 0.337064 0.0 
0.590357 -0.227514 0.0 
0.0491614 -0.117611 0.0 
0.000932255 -0.000109416 0.0 
0 0 0.0 
1.00872 -0.0427232 0.0 
0.00581687 0.000238534 0.0 
0.479217 -0.445397 0.0 
0.999159 -0.0113068 0.0 
0.771218 -0.0831017 0.0 
0.999669 0.00165811 0.0 
3.14191e-12 -2.24021e-14 0.0 
0.0195192 0.000138215 0.0 
0.0571244 -0.00185952 0.0 
0.105588 0.0189101 0.0 
0.044386 -0.00689355 0.0 
0.385218 -0.030109 0.0 
0.462878 -0.0132936 0.0 
0.737361 -0.0106384 0.0 
0.999998 -3.04174e-05 0.0 
0.873762 0.0872569 0.0 
0.608421 -0.256992 0.0 
0.933793 0.0907408 0.0 
0.0508122 -9.37173e-05 0.0 
8.22724e-13 6.07615e-14 0.0 
0.256071 -0.0227697 0.0 
0.00614598 -0.00178726 0.0 
1.07429 0.17965 0.0 
1.00832 0.0027063 0.0 
0.525953 -0.00787361 0.0 
0.859213 0.152883 0.0 
0.791994 0.0108758 0.0 
0.124954 -0.0185926 0.0 
0.594559 -0.345589 0.0 
0.868299 -0.0974676 0.0 
0.111171 -0.0152104 0.0 
0.778627 -0.0257454 0.0 
0.998151 0.128587 0.0 
1.009 0.00210219 0.0 
1.02206 -0.184682 0.0 
0 0 0.0 
0 0 0.0 
1.06432e-23 -2.22029e-23 0.0 
1.09109 0.0201916 0.0 
0.00844227 0.000710312 0.0 
0.235778 0.00521629 0.0 
0.0643404 -0.000207651 0.0 
0.516824 0.101834 0.0 
0 0 0.0 
0 0 0.0 
0.187333 0.0112209 0.0 
0.768337 0.00445565 0.0 
1.00643 0 0.0 
0.0341712 0.00117107 0.0 
0.981536 -0.0254011 0.0 
0.636634 0.088968 0.0 
0.573702 -0.209875 0.0 
0.783159 -0.0699195 0.0 
0.152027 0.0156779 0.0 
0.309162 0.0211996 0.0 
0 0 0.0 
0.811078 0.0785273 0.0 
0.121398 0.0111555 0.0 
0.0578764 -0.00261934 0.0 
0.388845 0.034711 0.0 
1.00837 0.00413888 0.0 
0.260736 -0.0288485 0.0 
0.0531493 -0.00214205 0.0 
0.00558459 -0.000682453 0.0 
0.994607 -0.00830466 0.0 
0.113306 0.0259192 0.0 
1.37762e-99 2.58905e-101 0.0 
1.0085 0.00667967 0.0 
0.427901 0.00418502 0.0 
0.850292 0.104782 0.0 
0.102173 0.0607352 0.0 
0.0514608 -0.00171151 0.0 
1.00953 -0.00471586 0.0 
0.311692 0.266144 0.0 
1.00885 0.000738783 0.0 
0.0446242 -0.00628954 0.0 
-1.14679e-110 -1.96459e-111 0.0 
1.00115 -0.000275722 0.0 
0.0124677 -0.000243668 0.0 
0.790987 0.342756 0.0 
0.475658 0.331191 0.0 
0.888995 0.00682531 0.0 
0.584218 0.0715259 0.0 
0.474095 0.0421381 0.0 
0.182279 -0.0180211 0.0 
2.17756e-295 5.99799e-297 0.0 
0.0965133 0.00436294 0.0 
0.630705 -0.0740333 0.0 
0.608038 0.31607 0.0 
0 0 0.0 
0.505554 0.0380905 0.0 
0.519208 0.0817652 0.0 
0 0 0.0 
0.0686928 -0.0433521 0.0 
0 0 0.0 
1.00943 0.00250028 0.0 
0.9903 0.0519456 0.0 
0 0 0.0 
0.30875 0.0213177 0.0 
0.000465374 4.23902e-05 0.0 
0.397327 0.309892 0.0 
0 0 0.0 
1.00768 -0.00093926 0.0 
1.0066 -0.0044195 0.0 
1.00359 0.00412472 0.0 
1.01725 0.0103767 0.0 
0.858827 -0.0507555 0.0 
6.12453e-09 2.00441e-09 0.0 
0.318473 -0.00535137 0.0 
1.01204 -0.0119249 0.0 
0 0 0.0 
0 0 0.0 
0.122524 -0.0212071 0.0 
0.0108438 0.000881279 0.0 
0 0 0.0 
1.43527e-11 5.71744e-13 0.0 
0.181411 0.0237586 0.0 
0.0394481 0.00566842 0.0 
0.116749 0.0166445 0.0 
0.801171 -0.139933 0.0 
0.157007 -0.0161793 0.0 
0.883454 -0.00670149 0.0 
0.985833 0.00268143 0.0 
8.31332e-13 1.08259e-13 0.0 
0.355395 -0.0320284 0.0 
0.0969507 -0.00712781 0.0 
0.250185 -0.0212921 0.0 
0.759634 0.198129 0.0 
0.755863 0.0626351 0.0 
0.0136054 0.000821703 0.0 
1.00735 -0.00381448 0.0 
0 0 0.0 
1.00828 0.000181552 0.0 
0.589256 0.0590184 0.0 
0 0 0.0 
1.00004 -0.000398495 0.0 
0.155953 0.00745996 0.0 
1.08612 -0.166188 0.0 
-2.37503e-300 1.07537e-301 0.0 
0.999783 -0.000311207 0.0 
-9.2504e-190 -3.05029e-191 0.0 
0.87552 -0.0566513 0.0 
1.00113 0.0014513 0.0 
0.0155496 0.00059258 0.0 
0.319562 0.0632145 0.0 
1.30599e-05 4.17639e-07 0.0 
0.622076 0.0740823 0.0 
0.864321 0.0665849 0.0 
0.34473 -0.0257283 0.0 
1.00817 -0.00464234 0.0 
5.49324e-10 -2.97222e-10 0.0 
0.470176 0.00418839 0.0 
1.00486 -0.266544 0.0 
0.504555 0.0101552 0.0 
6.25069e-296 1.72172e-297 0.0 
0 0 0.0 
0.253059 0.00904705 0.0 
0.707972 -0.377268 0.0 
1.07375 -0.0983089 0.0 
1.00706 -0.00730782 0.0 
1.05591 0.00341913 0.0 
0 0 0.0 
0.656626 -0.285288 0.0 
0 0 0.0 
0.240245 0.0821989 0.0 
1.47511e-20 -1.2495e-20 0.0 
-1.54146e-155 2.16266e-156 0.0 
1.00883 0.0013733 0.0 
1.01547 -0.0109638 0.0 
0.999083 -0.00209694 0.0 
0.988149 -0.00284604 0.0 
0.715447 -0.266748 0.0 
1.00077 0.00153763 0.0 
1.24799e-09 2.01387e-09 0.0 
4.3206e-06 6.77591e-08 0.0 
0.0481289 -0.00160164 0.0 
0.0222715 -0.00215481 0.0 
1.00844 1.9909e-05 0.0 
1.00781 -0.00347986 0.0 
0.20815 0.129304 0.0 
0.716532 0.337423 0.0 
0.525359 -0.0566611 0.0 
1.00695 -0.00411809 0.0 
0.648093 0.256849 0.0 
0.712014 0.271425 0.0 
0.197027 -0.0084382 0.0 
0.0109327 0.00038863 0.0 
1.0038 -0.0012271 0.0 
0.0640126 0.0142596 0.0 
0.999818 0.000767679 0.0 
0 0 0.0 
0.767389 0.120578 0.0 
1.00965 0.000766396 0.0 
1.00112 0.00232335 0.0 
0.329808 -0.324602 0.0 
0.0719167 -0.0609303 0.0 
0.995668 -0.00019534 0.0 
5.40241e-11 -2.16189e-12 0.0 
0.455671 0.0251011 0.0 
1.01726 0.00724845 0.0 
0.677047 0.242035 0.0 
1.00112 0 0.0 
1.00557 0.00476339 0.0 
0.709173 0.375722 0.0 
0.152158 0.042714 0.0 
1.01258 -0.00256395 0.0 
0.00029851 1.01234e-05 0.0 
0.482212 0.071362 0.0 
0.293617 0.121188 0.0 
0.728252 0.308595 0.0 
1.00035 -0.000262308 0.0 
0.905029 0.026129 0.0 
1.00801 0.000758909 0.0 
0.345546 -0.0240867 0.0 
6.41248e-21 -1.50732e-21 0.0 
0.60795 -0.291235 0.0 
2.50277e-21 1.86977e-22 0.0 
1.02015 -0.251914 0.0 
1.00809 8.26771e-05 0.0 
0.0216564 -0.00133526 0.0 
0 0 0.0 
1.05488 0.00990411 0.0 
1.00186 -0.00271775 0.0 
0.554181 -0.0631093 0.0 
0.5364 0.0989031 0.0 
0 0 0.0 
0.76243 0.305785 0.0 
1.06598 -0.0366054 0.0 
0.0282551 0.00692239 0.0 
1e-307 1e-307 0.0 
0.424888 -0.12334 0.0 
0.00805594 0.000191387 0.0 
0 0 0.0 
0.578892 -0.432379 0.0 
0.132563 0.0082477 0.0 
0.245621 -0.292499 0.0 
1.00031 0 0.0 
0.449079 -0.100096 0.0 
0.541414 -0.0335904 0.0 
1.00133 0.000416134 0.0 
-2.79181e-190 -9.20591e-192 0.0 
0.035098 0.00472702 0.0 
0.0293213 -0.00496497 0.0 
0.722422 0.054382 0.0 
0.494601 0.107895 0.0 
2.72947e-06 6.35973e-07 0.0 
0.0663619 -0.00149589 0.0 
0.781423 0.367075 0.0 
0.835058 0.138493 0.0 
1.00347 0 0.0 
0.0952274 0.00178105 0.0 
0.0770625 -0.0355579 0.0 
0.452846 0.337643 0.0 
0 0 0.0 
0.993253 -0.0143114 0.0 
0.471552 -0.0833687 0.0 
0.99997 -0.00443198 0.0 
1.01034 -0.00586015 0.0 
0.460001 -0.0417095 0.0 
1 0 0.0 
0.998434 -0.00073267 0.0 
0.759524 0.372938 0.0 
0.0241013 -0.00136281 0.0 
0 0 0.0 
0.970809 -0.217999 0.0 
0.0926817 0.00142345 0.0 
7.12219e-199 -4.89858e-200 0.0 
1.00927 0 0.0 
0.749008 0.277673 0.0 
0 0 0.0 
0.999307 -0.000203074 0.0 
0.461176 -0.191573 0.0 
2.13309e-05 -1.61484e-06 0.0 
0.150675 0.017878 0.0 
1.00565 0.00222653 0.0 
1.00723 0 0.0 
8.63082e-07 8.73058e-09 0.0 
0.789252 0.319349 0.0 
0.295934 0.0086086 0.0 
1.00823 -0.00407259 0.0 
0.853709 0.215914 0.0 
0.490686 -0.0481618 0.0 
0.769497 0.365354 0.0 
0.747364 0.0637934 0.0 
1.10131 -0.00806175 0.0 
1.00087 0.00237382 0.0 
0.863685 0.35458 0.0 
0.490403 -0.170954 0.0 
0.815284 0.356847 0.0 
0.295255 0.00249197 0.0 
1.01055 -0.00356938 0.0 
0.94352 -0.335313 0.0 
0.573116 -0.0599913 0.0 
0.745657 -0.0897963 0.0 
0.805401 -0.0816227 0.0 
0.229484 -0.00309446 0.0 
1.00823 0.00081369 0.0 
0.140794 -0.0188077 0.0 
0.324333 0.0446904 0.0 
1.05028 0.102379 0.0 
1.01195 -0.00305615 0.0 
0 0 0.0 
0.2223 -0.0618683 0.0 
0.0146363 0.00110814 0.0 
0.0770995 -0.00652195 0.0 
0.0209155 0.000668079 0.0 
1.00797 -0.00144177 0.0 
0.0459155 -0.00976957 0.0 
0.015693 -0.00154164 0.0 
0.411838 -0.0048681 0.0 
0.810133 0.127406 0.0 
1.00412 -0.00234796 0.0 
1.01119 -0.0102381 0.0 
1.00233 0.00245168 0.0 
0.454199 -0.0471151 0.0 
0.951072 -0.288789 0.0 
2.09541e-141 -8.63839e-143 0.0 
0.705237 -0.0868909 0.0 
1.00014 0.00216631 0.0 
0.78028 0.136704 0.0 
1.00623 -0.000308257 0.0 
0.00515986 0.000295428 0.0 
1.0094 -0.000539128 0.0 
0.188353 0.0394839 0.0 
0.799734 0.0736864 0.0 
1.00304 0 0.0 
1.00207 0.0017857 0.0 
0.695898 -0.447794 0.0 
0.767753 0.0878584 0.0 
0 0 0.0 
0.0771601 0.0629253 0.0 
0.107558 0.00611713 0.0 
0.420174 -0.00206401 0.0 
0.404966 -0.00301748 0.0 
0.771443 -0.289578 0.0 
0.78767 0.149226 0.0 
1.01142 0.00470877 0.0 
1.0065 -0.000488063 0.0 
1.00181 -0.00129823 0.0 
5.14529e-28 1.94149e-29 0.0 
0.172141 0.0128757 0.0 
-6.57994e-153 1.03022e-153 0.0 
0.740313 0.0319161 0.0 
0.860202 -0.143144 0.0 
2.2129e-22 2.3143e-22 0.0 
0.832784 -0.216355 0.0 
0.591684 0.0813809 0.0 
0.0430362 -0.0166838 0.0 
0.999041 0.000692079 0.0 
0.000107692 3.52453e-05 0.0 
0.325302 -0.0212237 0.0 
0.837527 -0.0223608 0.0 
-1.60556e-86 1.77541e-87 0.0 
0.0239703 -0.00143467 0.0 
1.00139 -0.00132777 0.0 
0 0 0.0 
0.229323 0.0173322 0.0 
0.253709 -0.00762864 0.0 
1.00005 -0.000597726 0.0 
0.861929 0.258663 0.0 
0 0 0.0 
0.195761 0.0269201 0.0 
1.85091e-06 3.57183e-07 0.0 
2.49344e-125 4.71963e-127 0.0 
0.131248 0.0112899 0.0 
0.941578 0.00452753 0.0 
0 0 0.0 
0.756454 -0.179653 0.0 
0.892317 -0.300133 0.0 
0.880556 -0.225606 0.0 
0.966226 0.305752 0.0 
0.752921 0.220024 0.0 
1.00844 0.000751856 0.0 
1.01178 -0.00521008 0.0 
0 0 0.0 
1.00715 0.000731901 0.0 
0.0724912 -0.156502 0.0 
1.23029e-07 -1.66731e-08 0.0 
0 0 0.0 
0.161822 -0.00986378 0.0 
1.07142 -0.0357015 0.0 
0 0 0.0 
0.995001 0.00993921 0.0 
0 0 0.0 
1.06047 0.219828 0.0 
1.00047 0.00517498 0.0 
1.01881 -0.301766 0.0 
0.313882 -0.0136412 0.0 
0.940907 -0.100904 0.0 
0.0420389 -0.000126386 0.0 
0.358671 -0.00383039 0.0 
0 0 0.0 
1.01234 -0.294499 0.0 
0.995286 -0.00101544 0.0 
0.324604 0.168148 0.0 
3.5214e-25 -2.5426e-27 0.0 
0.316593 0.0753468 0.0 
0.164909 0.0186519 0.0 
0.0733371 -0.000230258 0.0 
1.0213 0.143353 0.0 
0.999515 -0.000230998 0.0 
1.03487 -0.0536571 0.0 
0.0998654 -0.0149734 0.0 
7.76708e-05 -7.1833e-06 0.0 
0.999538 -0.000286065 0.0 
0 0 0.0 
1.00591 0.000740981 0.0 
1.05657 0.094779 0.0 
0.00580315 -0.000459289 0.0 
5.08722e-16 6.31396e-17 0.0 
1.00903 0.256221 0.0 
0.72635 -0.0655761 0.0 
0.288009 0.0454188 0.0 
0.962815 -0.0114645 0.0 
1.00969 0.0089086 0.0 
0.0455123 -0.00117239 0.0 
1.06357 0.222995 0.0 
0.022707 0.00442667 0.0 
0.0912229 -0.0103452 0.0 
0.608417 -0.463313 0.0 
0.0871842 0.0317229 0.0 
0.994094 0.00238755 0.0 
0.727408 0.191706 0.0 
0.998906 0.000687326 0.0 
0.678621 0.199752 0.0 
0.39399 -0.2931 0.0 
0.00505972 0.000702023 0.0 
1.00203 0 0.0 
0.278838 0.0241459 0.0 
0 0 0.0 
1.00155 0.013191 0.0 
0 0 0.0 
1.00838 -0.000976017 0.0 
1.00815 0 0.0 
1.03665 -0.27292 0.0 
1.00458 0.000382075 0.0 
0.0304655 -0.0826027 0.0 
0.0226847 -0.000716874 0.0 
1.00769 -0.000566679 0.0 
0.0361572 -0.0153581 0.0 
1.02251 0.0136062 0.0 
0.918033 0.239272 0.0 
0.445516 -0.010255 0.0 
0.625932 0.159168 0.0 
0.999295 0.00197645 0.0 
0.0445039 -0.00108157 0.0 
0.787123 0.0268432 0.0 
0.00518326 0.000375272 0.0 
0.173958 -0.0065616 0.0 
1.0068 0 0.0 
0.997255 0.000977528 0.0 
1.00831 -0.00317613 0.0 
0.585389 -0.0712781 0.0 
0.933017 0.0456146 0.0 
1.00271 0.00102626 0.0 
1.00395 -0.0101638 0.0 
0.0144622 -0.000151086 0.0 
0 0 0.0 
0.99963 -0.000233621 0.0 
0.00575159 0.000577148 0.0 
1.00032 -0.00171952 0.0 
0 0 0.0 
0.00872298 0.000996641 0.0 
0.886693 0.0649506 0.0 
0.0801642 0.0398355 0.0 
1.00179 0 0.0 
1.09295 -0.100378 0.0 
0.942275 -0.360222 0.0 
0.99947 -0.000398054 0.0 
0.128679 0.000127874 0.0 
1.00875 -0.00415498 0.0 
0.0484849 -0.00350812 0.0 
0 0 0.0 
0 0 0.0 
0.364371 0.00602741 0.0 
1.0083 6.05435e-05 0.0 
0.27963 -0.0310335 0.0 
1.00864 -0.00338016 0.0 
0.957356 0.0287448 0.0 
0.0872483 -0.00911026 0.0 
0.651317 0.277106 0.0 
0.566274 0.28852 0.0 
7.32701e-13 6.93908e-14 0.0 
0.920408 -0.304862 0.0 
1.00003 0.000515041 0.0 
0.58951 0.228225 0.0 
1.08407 -0.0354567 0.0 
0.210444 -0.000141846 0.0 
0.95172 0.284477 0.0 
0.941788 -0.0145935 0.0 
3.5376e-45 5.31892e-46 0.0 
0.818977 -0.244529 0.0 
0.0330857 -0.0117406 0.0 
0.161324 0.168615 0.0 
0 0 0.0 
0 0 0.0 
0.806019 0.198082 0.0 
8.3481e-277 2.29944e-278 0.0 
0.0331542 -0.0150379 0.0 
1.0169 -0.11116 0.0 
0.870262 0.270077 0.0 
0.801128 -0.351741 0.0 
0.279259 -0.0292989 0.0 
0.839196 0.0156808 0.0 
0 0 0.0 
0.0097148 -0.000385127 0.0 
0 0 0.0 
1.00137 0.000754673 0.0 
0.0259688 0.000214184 0.0 
0.000928553 -3.35591e-05 0.0 
0.645995 -0.00857639 0.0 
0.0956594 -0.0042366 0.0 
1.00421 0.000607254 0.0 
1.0017 0.00213187 0.0 
1.00624 0.152717 0.0 
0.00435328 -0.000524362 0.0 
0.396074 0.0500953 0.0 
0.743415 -0.430149 0.0 
1 0.000248769 0.0 
0.242312 -0.00793594 0.0 
0.117888 -0.0215086 0.0 
0 0 0.0 
0.977196 0.293907 0.0 
1.00786 0.000299325 0.0 
0.997588 0.00347363 0.0 
1.0005 0.000587398 0.0 
6.22126e-06 -2.94587e-07 0.0 
0.682324 -0.107168 0.0 
0.755621 0.0145479 0.0 
1.00941 0.00198165 0.0 
0 0 0.0 
1.12224 0.117065 0.0 
1.00821 0.000134935 0.0 
0.902704 -0.0746022 0.0 
0.914218 0.0774472 0.0 
1.01032 -0.000364885 0.0 
0 0 0.0 
0.966668 -0.167794 0.0 
0.968709 -0.3423 0.0 
0.00408804 -0.000184478 0.0 
0.00262578 -0.000314566 0.0 
1.00833 0.00126483 0.0 
0.873503 -0.0452982 0.0 
0.635023 -0.135618 0.0 