<VTKFile type="UnstructuredGrid" version="0.1" byte_order="LittleEndian">
  <UnstructuredGrid>
    <Piece NumberOfPoints="12684" NumberOfCells="25207">
      <Points>
        <DataArray type = "Float64" NumberOfComponents="3" format="ascii">
0 0 0.0 
14 0 0.0 
14 8 0.0 
0 8 0.0 
4.16782 4.09801 0.0 
4.01348 3.99897 0.0 
4.14963 4.05835 0.0 
4.32086 3.96903 0.0 
4.09208 3.95602 0.0 
4.27592 4.05022 0.0 
6.53513 3.85508 0.0 
4.05669 3.93986 0.0 
12.435 2.56845 0.0 
4.16514 3.96707 0.0 
12.5949 1.78564 0.0 
4.01396 4.08707 0.0 
3.99487 4.0255 0.0 
4.43298 3.97208 0.0 
4.871 3.88909 0.0 
4.54493 4.06154 0.0 
4.08492 3.93693 0.0 
4.67561 4.07536 0.0 
4.67171 4.04975 0.0 
4.97365 4.02617 0.0 
5.00565 3.99954 0.0 
4.76357 4.04126 0.0 
7.97344 0 0.0 
4.04076 4.01398 0.0 
4.36723 4.05555 0.0 
4.00338 3.991 0.0 
4.31532 3.96842 0.0 
8.28818 5.78715 0.0 
12.6983 7.1386 0.0 
4.09533 4.03459 0.0 
4.00922 3.99881 0.0 
5.86285 4.14861 0.0 
4.36996 3.83504 0.0 
4.01927 3.99345 0.0 
4.02807 4.0484 0.0 
4.11094 4.03801 0.0 
4.30562 3.92125 0.0 
9.79735 4.60052 0.0 
4.37665 3.94429 0.0 
3.98196 3.98783 0.0 
4.89514 4.01975 0.0 
4.36023 4.05917 0.0 
4.01706 3.99618 0.0 
4.07128 4.03374 0.0 
11.594 4.9373 0.0 
5.01133 7.64329 0.0 
4.00036 4.02872 0.0 
7.77753 5.82697 0.0 
4.14412 4.06545 0.0 
13.2243 6.58094 0.0 
4.06316 3.97118 0.0 
4.01509 4.07555 0.0 
4.09917 3.9306 0.0 
4.00745 4.01155 0.0 
4.01647 3.99236 0.0 
4.00942 4.01407 0.0 
4.03396 4.05254 0.0 
3.97172 3.99094 0.0 
4.90313 3.99325 0.0 
4.02884 4.00253 0.0 
4.25887 4.0791 0.0 
4.14051 3.96642 0.0 
11.1686 2.59511 0.0 
4.11862 4.07496 0.0 
4.97438 3.98942 0.0 
5.00785 4.00312 0.0 
10.8833 7.73481 0.0 
14 6.11123 0.0 
4.05473 4.02615 0.0 
3.96293 3.99513 0.0 
4.04956 3.95606 0.0 
4.29546 4.07179 0.0 
12.0472 6.07402 0.0 
4.86763 4.05894 0.0 
3.99922 3.99464 0.0 
5.03684 4.01469 0.0 
5.13784 4.02471 0.0 
4.24724 3.96802 0.0 
4.02989 4.07066 0.0 
7.0491 5.63672 0.0 
14 5.21618 0.0 
6.49943 1.9325 0.0 
3.41272 0.490598 0.0 
4.80013 4.01216 0.0 
4.35243 4.05678 0.0 
4.0274 4.02691 0.0 
3.99833 4.00152 0.0 
5.00991 4.10716 0.0 
5.09541 3.97365 0.0 
4.22917 3.98359 0.0 
4.24422 7.49665 0.0 
12.4261 6.96803 0.0 
4.35343 3.94951 0.0 
4.02083 4.02201 0.0 
3.05349 4.57182 0.0 
4.03436 3.97963 0.0 
5.35802 3.8814 0.0 
0.559103 6.5697 0.0 
4.58515 4.03783 0.0 
4.08373 4.05666 0.0 
5.00129 3.99352 0.0 
4.49808 3.97496 0.0 
4.27852 0 0.0 
5.04845 4.04311 0.0 
4.15937 4.1192 0.0 
7.19422 3.11171 0.0 
4.70867 4.19468 0.0 
4.13434 4.07811 0.0 
5.00749 4.02107 0.0 
4.03921 4.05963 0.0 
4.73603 4.04007 0.0 
4.94807 3.99601 0.0 
4.35017 3.94589 0.0 
5.51345 3.96996 0.0 
4.01644 4.04405 0.0 
4.27487 4.14459 0.0 
4.19855 4.04961 0.0 
4.1741 4.07586 0.0 
3.99834 4.00086 0.0 
4.05426 3.97127 0.0 
3.75062 1.29589 0.0 
4.92127 4.01479 0.0 
10.0708 7.04667 0.0 
4.14693 4.07034 0.0 
3.91267 2.38613 0.0 
4.02873 4.0411 0.0 
4.88146 4.04087 0.0 
4.0576 3.97622 0.0 
4.49136 4.08498 0.0 
4.15808 4.06137 0.0 
4.12124 3.98374 0.0 
4.31728 4.06974 0.0 
9.69603 1.17993 0.0 
12.5022 4.59685 0.0 
0.707621 6.30756 0.0 
4.99458 4.03862 0.0 
4.63529 3.97158 0.0 
4.02244 4.02798 0.0 
4.2728 4.02121 0.0 
4.12635 4.07409 0.0 
0 1.4212 0.0 
5.00546 4.00308 0.0 
4.747 4.03968 0.0 
4.2755 4.03498 0.0 
4.62518 3.97997 0.0 
4.75615 3.98697 0.0 
5.01331 3.98969 0.0 
4.99441 4.00165 0.0 
4.3322 4.10734 0.0 
5.05415 4.0144 0.0 
4.36683 3.97136 0.0 
4.12613 3.92733 0.0 
3.80199 4.16473 0.0 
4.83847 3.99065 0.0 
4.19206 3.91938 0.0 
5.81702 3.84848 0.0 
5.01138 4.01337 0.0 
4.09641 3.95124 0.0 
3.88944 3.91155 0.0 
11.8191 3.3952 0.0 
3.96293 4.03138 0.0 
4.16991 4.04935 0.0 
4.86787 3.9918 0.0 
4.23532 3.95103 0.0 
4.00245 3.99332 0.0 
3.99252 4.00665 0.0 
4.17686 4.06982 0.0 
4.9982 3.99466 0.0 
3.75644 4.22531 0.0 
4.23671 3.96696 0.0 
4.38657 3.97109 0.0 
4.28938 4.04669 0.0 
3.99767 4.01611 0.0 
3.99665 4.0541 0.0 
5.06886 4.12388 0.0 
4.19057 4.05281 0.0 
4.10081 3.94382 0.0 
4.05695 3.98888 0.0 
4.0225 4.01997 0.0 
4.35372 4.06996 0.0 
4.34186 4.12909 0.0 
13.473 2.80062 0.0 
5.00368 4.02219 0.0 
0 7.54144 0.0 
3.9771 4.03148 0.0 
4.15574 3.96573 0.0 
4.51625 4.06363 0.0 
4.15753 4.10167 0.0 
4.92379 3.99434 0.0 
4.18309 4.12442 0.0 
3.96476 4.03852 0.0 
3.96822 4.02719 0.0 
3.97233 4.04194 0.0 
4.04649 4.1967 0.0 
4.10349 3.92287 0.0 
4.21059 3.92477 0.0 
4.16113 4.06214 0.0 
3.92251 4.00785 0.0 
8.74191 0.517135 0.0 
12.4842 4.22703 0.0 
4.60126 3.98009 0.0 
5.02505 4.01161 0.0 
4.17179 4.06254 0.0 
4.81305 3.99007 0.0 
4.14557 4.03412 0.0 
4.01783 3.98075 0.0 
4.68439 3.98346 0.0 
4.40269 3.97149 0.0 
4.00756 4.02287 0.0 
4.00612 4.04547 0.0 
5.0401 4.02083 0.0 
4.98371 4.01321 0.0 
4.98329 4.00492 0.0 
4.16261 3.96556 0.0 
4.01127 4.04737 0.0 
5.09271 4.07101 0.0 
4.15142 3.97478 0.0 
12.1985 2.08023 0.0 
4.79448 3.9888 0.0 
4.90946 3.98223 0.0 
6.25214 4.08628 0.0 
9.70989 7.75915 0.0 
4.17306 3.95884 0.0 
4.02341 4.03456 0.0 
4.12209 3.94586 0.0 
4.52724 7.41561 0.0 
5.05919 4.01855 0.0 
2.15923 7.15628 0.0 
4.22906 3.92121 0.0 
4.07513 3.96893 0.0 
4.60701 3.95862 0.0 
4.16712 4.07049 0.0 
4.26561 3.96741 0.0 
4.1234 4.03587 0.0 
4.13732 3.96487 0.0 
5.63097 4.5793 0.0 
1.24078 0.550265 0.0 
9.10545 7.45594 0.0 
2.38032 0.204862 0.0 
4.76262 4.0388 0.0 
4.11851 4.05833 0.0 
4.25854 3.983 0.0 
4.01517 4.03055 0.0 
4.93871 3.9953 0.0 
3.99882 3.99972 0.0 
7.15285 6.80318 0.0 
10.838 3.45119 0.0 
11.3207 6.86561 0.0 
4.03203 3.93215 0.0 
3.99908 3.98836 0.0 
8.76112 4.31939 0.0 
4.26795 3.96781 0.0 
4.08875 3.9074 0.0 
5.82879 4.74509 0.0 
4.08204 4.06709 0.0 
4.21507 3.9482 0.0 
1.05847 0.743665 0.0 
4.97222 4.02124 0.0 
8.50823 6.62797 0.0 
4.19735 4.0441 0.0 
5.05268 4.00394 0.0 
4.53625 4.00638 0.0 
4.14755 3.9665 0.0 
4.08678 3.96894 0.0 
11.9473 3.59927 0.0 
5.1327 4.04445 0.0 
4.00735 4.09545 0.0 
4.08293 3.9416 0.0 
5.61355 8 0.0 
4.54135 4.06071 0.0 
4.15917 4.06546 0.0 
4.37498 4.07042 0.0 
4.75565 4.02181 0.0 
3.9901 3.98452 0.0 
2.74769 3.98952 0.0 
4.14117 3.95564 0.0 
4.0175 4.04099 0.0 
10.8425 1.88491 0.0 
3.98648 4.05975 0.0 
4.99909 4.00383 0.0 
4.73282 4.02431 0.0 
4.1797 4.07872 0.0 
4.048 4.03551 0.0 
4.06911 3.9687 0.0 
4.82027 4.0309 0.0 
3.74084 7.4497 0.0 
4.38814 3.97241 0.0 
3.59386 3.60045 0.0 
13.2253 0 0.0 
10.1351 3.82958 0.0 
2.17048 3.47203 0.0 
4.08853 4.12807 0.0 
5.06347 3.99507 0.0 
4.12591 3.96843 0.0 
4.71899 4.53623 0.0 
3.99526 4.00176 0.0 
5.08198 4.04957 0.0 
5.02947 4.00625 0.0 
4.03934 3.97617 0.0 
5.02122 3.98128 0.0 
4.02269 3.99899 0.0 
4.28347 4.0804 0.0 
12.3266 4.10484 0.0 
13.4125 7.46568 0.0 
4.08711 3.98632 0.0 
3.99883 4.01382 0.0 
4.47657 4.06545 0.0 
4.0751 4.04195 0.0 
3.30336 6.27526 0.0 
3.00255 3.79105 0.0 
4.06237 3.97369 0.0 
4.22203 4.07709 0.0 
12.2626 4.73909 0.0 
4.13386 4.04638 0.0 
4.84142 3.97764 0.0 
5.02315 4.00602 0.0 
4.72609 4.04347 0.0 
4.00684 3.98636 0.0 
3.99752 4.02893 0.0 
4.01884 3.99521 0.0 
4.0888 3.96815 0.0 
3.98628 3.99582 0.0 
6.47786 4.29101 0.0 
4.98756 3.96669 0.0 
4.01204 4.00974 0.0 
9.38165 5.70141 0.0 
5.00875 4.00222 0.0 
1.65363 3.57513 0.0 
4.97445 3.98438 0.0 
8.1554 7.24604 0.0 
4.10761 4.0532 0.0 
4.00774 3.99043 0.0 
3.98163 4.03116 0.0 
1.58634 4.11387 0.0 
3.96215 4.17217 0.0 
4.03692 3.96558 0.0 
4.07644 3.95366 0.0 
4.17688 3.91279 0.0 
9.52987 5.94501 0.0 
5.10311 4.0306 0.0 
4.28205 4.09231 0.0 
5.07095 2.11145 0.0 
3.93422 3.94134 0.0 
4.73099 4.053 0.0 
4.08433 4.05007 0.0 
3.98027 4.05285 0.0 
4.70756 3.98459 0.0 
3.79994 4.03793 0.0 
6.76366 4.01538 0.0 
3.98817 4.01223 0.0 
3.95129 3.83785 0.0 
4.04077 3.99338 0.0 
4.08122 3.97053 0.0 
7.50681 5.84741 0.0 
4.76006 4.05448 0.0 
4.9022 3.96436 0.0 
4.05431 3.97496 0.0 
4.26742 4.0658 0.0 
4.31919 4.076 0.0 
4.71936 4.1123 0.0 
13.776 6.53269 0.0 
0.612828 0.378423 0.0 
4.86228 3.99219 0.0 
5.18793 4.05304 0.0 
3.9335 4.04558 0.0 
4.98098 4.00504 0.0 
4.12438 3.96136 0.0 
3.98111 4.00805 0.0 
5.00317 4.00256 0.0 
3.99352 3.97666 0.0 
11.2037 6.16116 0.0 
4.13137 4.09569 0.0 
4.67002 3.84867 0.0 
4.96845 3.9332 0.0 
3.98468 3.9804 0.0 
4.27492 4.05293 0.0 
4.10308 3.95678 0.0 
4.53255 3.97703 0.0 
4.07437 3.49323 0.0 
4.29717 4.06299 0.0 
12.0282 5.62751 0.0 
4.33851 4.07437 0.0 
4.71396 3.96273 0.0 
3.98206 3.97395 0.0 
12.9901 3.16776 0.0 
12.354 4.9571 0.0 
3.99381 4.15419 0.0 
4.43103 3.97341 0.0 
4.27667 3.96732 0.0 
4.10663 4.0301 0.0 
4.00375 4.03912 0.0 
9.45723 3.68224 0.0 
3.99121 4.03339 0.0 
3.99417 4.04189 0.0 
4.83946 3.99284 0.0 
4.10819 3.96286 0.0 
4.25544 4.08913 0.0 
3.97937 0.292323 0.0 
3.99997 3.99241 0.0 
3.82868 4.23121 0.0 
4.00554 4.00386 0.0 
4.32923 4.06947 0.0 
4.06478 3.96921 0.0 
3.98918 4.03714 0.0 
4.11708 3.96774 0.0 
4.01059 4.0357 0.0 
4.55346 4.06038 0.0 
4.02863 3.97467 0.0 
4.09975 3.95651 0.0 
4.13306 4.06692 0.0 
4.00056 4.04248 0.0 
1.05155 0.371395 0.0 
5.00051 4.00209 0.0 
3.9896 4.00463 0.0 
9.35325 2.80525 0.0 
3.98613 3.98439 0.0 
0 5.31463 0.0 
5.18501 3.88622 0.0 
4.00273 4.04763 0.0 
4.02428 4.00868 0.0 
2.46283 1.41429 0.0 
4.00324 3.99345 0.0 
4.33753 3.91963 0.0 
4.13122 4.0569 0.0 
4.96289 3.99823 0.0 
4.0064 4.00089 0.0 
4.96536 4.0072 0.0 
3.98643 3.99986 0.0 
4.02217 3.98852 0.0 
3.99748 4.01455 0.0 
3.99581 3.98523 0.0 
3.99697 4.00162 0.0 
0.970073 0 0.0 
3.98481 4.00073 0.0 
3.97761 4.0047 0.0 
4.07606 4.03588 0.0 
13.391 6.29277 0.0 
11.4017 6.00251 0.0 
4.52737 4.06151 0.0 
4.11077 4.06077 0.0 
3.98558 4.00796 0.0 
5.04298 4.00764 0.0 
4.32081 2.62788 0.0 
4.31733 4.12295 0.0 
4.00883 3.98758 0.0 
4.69135 4.04598 0.0 
4.27982 4.05867 0.0 
14 6.70716 0.0 
4.06498 3.96487 0.0 
4.00161 4.0037 0.0 
4.59206 3.98032 0.0 
4.11333 3.95725 0.0 
4.45534 4.06663 0.0 
3.99631 4.00733 0.0 
4.1557 4.02236 0.0 
4.07076 4.03121 0.0 
3.99804 4.00952 0.0 
4.96892 3.9982 0.0 
4.01284 4.13692 0.0 
3.99705 4.04765 0.0 
4.96232 3.98271 0.0 
4.45429 5.42419 0.0 
4.07745 3.92655 0.0 
5.0004 3.98388 0.0 
9.05545 0 0.0 
4.58881 3.9793 0.0 
4.13787 3.93543 0.0 
4.9972 4.01381 0.0 
4.10918 3.95694 0.0 
[...]
<PointData>
  <DataArray type = "Float64" Name="Vitesse" NumberOfComponents="3" format="ascii">
1 0 0.0 
1.00611 0 0.0 
1.0045 0 0.0 
1 0 0.0 
1.02937 0.173026 0.0 
0 0 0.0 
0.0734892 0.00984025 0.0 
0.00895286 0.00022951 0.0 
0.623224 -0.0822927 0.0 
0 0 0.0 
0.9502 0.0046372 0.0 
1.05701 -0.243665 0.0 
1.00824 0.00130174 0.0 
0.0223016 0.00104355 0.0 
1.00741 0.000694889 0.0 
0.894875 0.245332 0.0 
0.565381 0.287777 0.0 
0.0118241 0.000596786 0.0 
0.93332 0.0215741 0.0 
0.0169945 -0.000670371 0.0 
1.05179 -0.186192 0.0 
0.271425 -0.0192969 0.0 
0.00960954 -0.00112943 0.0 
0.0661383 -0.00995832 0.0 
0.0270487 0.00335866 0.0 
0.0205292 -0.00238358 0.0 
1.00838 0 0.0 
0 0 0.0 
0 0 0.0 
0.209289 -0.189976 0.0 
0.0182068 0.000143606 0.0 
1.0095 -0.00178443 0.0 
1.00565 -0.000463935 0.0 
0 0 0.0 
0 0 0.0 
0.93734 -0.0160862 0.0 
1.0844 -0.0355744 0.0 
0 0 0.0 
0.835741 0.358946 0.0 
0 0 0.0 
0.853311 -0.0225224 0.0 
1.009 -0.00138269 0.0 
0.434487 0.00420148 0.0 
0.590217 -0.228692 0.0 
0.0027208 -0.000468625 0.0 
0 0 0.0 
0 0 0.0 
8.41362e-103 2.46012e-103 0.0 
1.00822 -0.00183085 0.0 
1.00912 0.000487266 0.0 
0.608757 0.341045 0.0 
1.00991 -0.00207939 0.0 
0.406947 0.0704176 0.0 
1.00581 -0.000858752 0.0 
0.167527 -0.0288775 0.0 
0.879525 0.271146 0.0 
1.06829 -0.167453 0.0 
-1.27638e-26 -1.07532e-26 0.0 
0 0 0.0 
0 0 0.0 
0.867734 0.34902 0.0 
0.634679 -0.136564 0.0 
0.0115503 0.000569196 0.0 
0 0 0.0 
0.361254 0.0263562 0.0 
0.0662058 -0.00478257 0.0 
1.0088 0.00111797 0.0 
0.865681 0.188075 0.0 
0.0810727 0.00460233 0.0 
0.0248534 -0.00485666 0.0 
1.00642 -0.00015487 0.0 
1.00558 -0.00173772 0.0 
0 0 0.0 
0.670671 -0.0827763 0.0 
0.933971 -0.234276 0.0 
0.0944776 0.00551001 0.0 
1.00713 -0.00109754 0.0 
0.222609 -0.0210433 0.0 
0.192223 -0.294061 0.0 
0.0617054 -0.00935604 0.0 
0.161457 -0.00997053 0.0 
8.5371e-06 1.93262e-07 0.0 
0.908348 0.305058 0.0 
1.01112 -0.002883 0.0 
1.00571 -0.00329449 0.0 
1.01072 0.00067543 0.0 
1.00431 -0.00121809 0.0 
0 0 0.0 
8.5468e-146 3.25457e-147 0.0 
0.0896215 0.0559277 0.0 
0.0448759 -0.0690924 0.0 
0.736986 -0.0497795 0.0 
0.282255 0.0239977 0.0 
0 0 0.0 
1.00773 0.00123787 0.0 
1.00593 -0.000558061 0.0 
0.347721 0.003802 0.0 
5.01793e-53 1.8611e-53 0.0 
0.99122 0.0110767 0.0 
1.84809e-07 -4.32586e-08 0.0 
0.920767 0.0253267 0.0 
1.00009 0.000618272 0.0 
1.76748e-189 7.18965e-191 0.0 
0.609771 0.162016 0.0 
0.0642878 0.0139754 0.0 
0.00770833 0.000455417 0.0 
1.00631 0 0.0 
0.196872 -0.026254 0.0 
1.09621 0.187478 0.0 
1.01051 0.00194364 0.0 
1.08956 -0.020749 0.0 
0.851101 0.168248 0.0 
0.0596109 -0.0182143 0.0 
0.91101 0.337514 0.0 
-1.98013e-17 1.61496e-18 0.0 
0.00638674 0.000445973 0.0 
0.41294 0.00280831 0.0 
0.462569 0.012984 0.0 
0.788892 0.36597 0.0 
1.12608 0.107156 0.0 
5.22516e-90 1.58398e-91 0.0 
0.581291 0.0830485 0.0 
0.0488766 -0.0930879 0.0 
0.259533 -0.0477905 0.0 
1.00576 -0.00359055 0.0 
0.000893734 -8.41612e-05 0.0 
1.00721 -0.000576939 0.0 
0.562837 0.0964833 0.0 
1.00798 -0.00984096 0.0 
0.731489 0.331675 0.0 
0.0938857 -0.0107376 0.0 
6.27291e-65 -3.55127e-66 0.0 
0.32719 -0.00987878 0.0 
0.152582 0.0170392 0.0 
0 0 0.0 
0.0247169 0.000136083 0.0 
1.00818 0.000449486 0.0 
1.01228 -0.00142004 0.0 
1.00011 0.000891366 0.0 
0.145169 -0.0208639 0.0 
0.110203 0.0048861 0.0 
0.334128 0.174744 0.0 
1.74103e-178 7.08206e-180 0.0 
0.801758 0.164539 0.0 
1 0 0.0 
0.0198976 -0.00647696 0.0 
-1.4861e-17 1.62505e-18 0.0 
2.18773e-187 8.89914e-189 0.0 
0.0133991 0.000762746 0.0 
0.00364778 0.000228549 0.0 
0.105579 0.0187721 0.0 
3.03974e-05 -6.16629e-06 0.0 
0.841034 0.0445813 0.0 
0.0770163 -0.00647549 0.0 
5.92417e-06 5.67159e-07 0.0 
1.05259 -0.132261 0.0 
0.934964 0.0484152 0.0 
0.00754416 0.000223616 0.0 
1.01879 -0.078153 0.0 
0.973846 0.0123339 0.0 
0.0378244 -0.0149644 0.0 
0.754028 -0.102231 0.0 
0.899679 -0.0787187 0.0 
1.0098 0.00159938 0.0 
0.706764 0.0960152 0.0 
0 0 0.0 
0.00872585 0.000340208 0.0 
0.372219 -0.00620886 0.0 
0.085124 -0.108737 0.0 
0.283015 0.0458365 0.0 
0.368824 0.0476221 0.0 
0.0508036 0.00842273 0.0 
0.953907 0.0442079 0.0 
0.0168254 0.000196267 0.0 
0.00678925 0.000729091 0.0 
3.32013e-282 2.232e-283 0.0 
0.386951 0.284185 0.0 
0.777611 0.263648 0.0 
0.857792 -0.0506703 0.0 
0 0 0.0 
0.915682 -0.131148 0.0 
0 0 0.0 
1.31131e-111 4.72553e-112 0.0 
0.0244345 -0.000590469 0.0 
1.06192 0.063564 0.0 
1.00793 0.000814057 0.0 
0.062939 -0.0176295 0.0 
1 0 0.0 
0.661485 0.155091 0.0 
0.068571 -0.00123548 0.0 
0.0170541 -0.00159482 0.0 
1.06539 0.189457 0.0 
0.0113452 0.000671391 0.0 
1.10706 0.168738 0.0 
0.724279 0.121449 0.0 
0.673389 0.0993815 0.0 
0.721769 0.156123 0.0 
0.997343 0.148822 0.0 
1.08658 -0.165123 0.0 
0.93317 -0.0569758 0.0 
0.165724 0.0225419 0.0 
0.792471 -0.0105512 0.0 
1.00823 0.000195884 0.0 
0.95296 -0.00449743 0.0 
-4.77164e-33 -3.88227e-34 0.0 
0.047202 -0.00902416 0.0 
0.125063 0.0191531 0.0 
0.000529424 7.18091e-05 0.0 
-1.63404e-254 -1.10055e-255 0.0 
0.350944 -0.142199 0.0 
0.00608779 0.000384551 0.0 
0.00716511 0.000563373 0.0 
0.473716 0.331439 0.0 
0.761441 0.327698 0.0 
0.0774502 -0.0140297 0.0 
0.0230542 -0.00474536 0.0 
0.00204456 -0.000338539 0.0 
0.0674757 -0.00194725 0.0 
0.788616 0.341501 0.0 
0.445179 -0.0381187 0.0 
-1.23297e-264 1.03926e-265 0.0 
1.00782 0.000966464 0.0 
0.0048915 0.000648239 0.0 
0.117914 0.00579671 0.0 
0.738987 -0.0108376 0.0 
1.00712 -0.000152512 0.0 
0.245907 -0.00785896 0.0 
0.610469 0.305458 0.0 
0.774962 -0.0838833 0.0 
1.00851 0.00122532 0.0 
0.0871003 -0.00943754 0.0 
1.00202 0.00172154 0.0 
0.946635 -0.0529554 0.0 
0.188064 -0.0275894 0.0 
0.253314 0.00913938 0.0 
0.442957 0.0640883 0.0 
0.0168903 2.05115e-05 0.0 
-5.2731e-261 -3.55193e-262 0.0 
0.120719 -0.00327516 0.0 
1.01723 -0.0142522 0.0 
1.00049 -0.000467169 0.0 
1.0076 -0.000376334 0.0 
1.00202 -0.000377296 0.0 
0.00600777 -0.000492051 0.0 
0.319996 0.0604093 0.0 
3.5927e-217 3.50521e-218 0.0 
0.60341 0.336605 0.0 
0.0089525 0.00072814 0.0 
0.0488773 -0.117165 0.0 
1.00975 -0.00105708 0.0 
1.01113 0.000955796 0.0 
1.00666 -0.000653038 0.0 
1.00995 -0.259436 0.0 
0.479471 -0.446467 0.0 
1.00931 -0.00281651 0.0 
0.00952441 0.000261891 0.0 
1.07731 -0.174415 0.0 
1.01628 -0.01025 0.0 
0.900862 0.251985 0.0 
0.462794 -0.0137538 0.0 
1.00034 -0.00052583 0.0 
0.0442822 -0.00694527 0.0 
1.00856 -0.00105629 0.0 
0 0 0.0 
0.0816764 0.0030363 0.0 
1.11405e-160 4.53167e-162 0.0 
0.0548188 0.000189947 0.0 
0.116289 -0.0142994 0.0 
1.01165 0.00030789 0.0 
0.255408 -0.022785 0.0 
0.897473 0.222911 0.0 
1.01579 -0.180975 0.0 
1.00948 0 0.0 
0.00525863 -7.34582e-05 0.0 
0.305996 0.0421376 0.0 
0.0401171 -0.000849041 0.0 
3.0069e-92 -3.47393e-93 0.0 
0.594876 -0.347276 0.0 
0.991885 0.000627137 0.0 
0.410941 -0.0271424 0.0 
0.767273 0.372152 0.0 
1.00838 0.000786749 0.0 
0.788097 0.21834 0.0 
0.0121758 -0.00630649 0.0 
8.69341e-88 -1.00437e-88 0.0 
0.637404 0.0894592 0.0 
0.114574 0.0351902 0.0 
0.249105 -0.0386247 0.0 
0.00387444 -0.000455468 0.0 
1.00635 0.00157453 0.0 
-1.18684e-15 -9.73056e-17 0.0 
0.981337 -0.0254739 0.0 
1.00637 0 0.0 
0.936489 0.000324384 0.0 
0.996739 -0.00186373 0.0 
1.03015 0.213429 0.0 
0.121236 0.0110967 0.0 
0.0257796 -0.00266529 0.0 
1.05139 0.002162 0.0 
0.164373 -0.0985483 0.0 
0.260008 -0.0287942 0.0 
0.0531425 -0.00207518 0.0 
0.149321 -0.0381908 0.0 
0.180489 0.023655 0.0 
0 0 0.0 
0.342648 0.0194053 0.0 
0.878207 -0.00635648 0.0 
1.00507 -0.000334504 0.0 
0 0 0.0 
0.311251 0.265281 0.0 
0.0121551 -0.00088393 0.0 
-5.77427e-32 -8.36064e-33 0.0 
1.00544 0.0060626 0.0 
0.987439 -0.00373801 0.0 
0.0508251 -0.0070095 0.0 
0.412474 0.0393593 0.0 
1.00846 -0.00223026 0.0 
0 0 0.0 
0.133415 0.00603884 0.0 
0.0456455 -0.00318954 0.0 
0.00746373 -0.000764659 0.0 
0.370967 -0.256297 0.0 
0.607049 0.315303 0.0 
0 0 0.0 
0.142694 -0.0149935 0.0 
0.460358 -0.192721 0.0 
1.00962 -0.00769959 0.0 
0.305474 0.0204321 0.0 
0 0 0.0 
1.00887 -0.00140592 0.0 
0.0279716 -0.00241915 0.0 
0.998268 -0.000760684 0.0 
0.12926 0.00778539 0.0 
1.00839 -0.000609687 0.0 
0.189486 0.0402095 0.0 
0 0 0.0 
0.646441 0.180737 0.0 
0.998268 0.000819146 0.0 
0.941443 0.12504 0.0 
0.7858 -0.231334 0.0 
0.808471 -0.141877 0.0 
1.07385 -0.0966372 0.0 
1.0086 -0.00124784 0.0 
0.156603 -0.0161862 0.0 
0.643417 0.0455724 0.0 
1.01267 -0.00285015 0.0 
0.853166 -0.117787 0.0 
0.0804069 -0.00817615 0.0 
0.315856 0.0748054 0.0 
0.759734 0.197817 0.0 
0.00548684 0.000206539 0.0 
0.908664 0.0109844 0.0 
0.604346 -0.00218438 0.0 
0.433245 0.110577 0.0 
0.960862 -0.111003 0.0 
0 0 0.0 
0.070637 -0.0100317 0.0 
1.01023 -0.00223767 0.0 
0.113257 -0.011291 0.0 
0.291284 0.0128469 0.0 
1.81701e-07 -2.1323e-08 0.0 
2.74579e-41 2.33339e-42 0.0 
0.180051 0.00354132 0.0 
0.735932 -0.0347907 0.0 
1.0054 -0.00114622 0.0 
1.00011 -0.000157452 0.0 
0.0036668 0.000224993 0.0 
0.34377 -0.0257265 0.0 
0.798934 0.0686838 0.0 
0.00148777 -0.000199476 0.0 
0.271073 -0.0199241 0.0 
0.503755 0.00925357 0.0 
0.0148857 -0.00721147 0.0 
0.709201 -0.378482 0.0 
1.00752 -0.00104132 0.0 
1.05741 0.216839 0.0 
1.05648 0.00326777 0.0 
0.618469 0.0274634 0.0 
0.657147 -0.286526 0.0 
0 0 0.0 
0.529105 -0.0576235 0.0 
3.80298e-05 4.81452e-06 0.0 
1.01746 -0.043916 0.0 
1.07853e-286 7.44801e-288 0.0 
1.00774 -0.00139322 0.0 
0.128688 0.00330562 0.0 
0.240321 0.00969583 0.0 
0.716112 -0.267755 0.0 
1.007 0.00133734 0.0 
1.00777 -0.00199054 0.0 
0.943472 0.155374 0.0 
9.47401e-11 4.63921e-12 0.0 
0.0208748 0.000217553 0.0 
0 0 0.0 
0.715926 0.336951 0.0 
1.01435 0.000834139 0.0 
0.647455 0.256158 0.0 
0.711624 0.270907 0.0 
-1.60236e-40 -1.43787e-41 0.0 
0.275123 -0.0238507 0.0 
0.634519 0.0546648 0.0 
1.0057 -0.000700295 0.0 
0.275614 -0.347518 0.0 
0.952511 0.0609218 0.0 
-3.05611e-34 -3.95594e-34 0.0 
0.022467 -0.000121092 0.0 
0.257796 -0.0463433 0.0 
0.676571 0.241416 0.0 
0.0670403 -0.0020419 0.0 
0.708711 0.375376 0.0 
0.00959405 7.45363e-05 0.0 
0.478919 -0.159526 0.0 
0.557692 -0.0641294 0.0 
0.539618 0.100277 0.0 
0.727767 0.308112 0.0 
1.00035 -0.000265812 0.0 
0.00926246 -0.0068926 0.0 
0.344794 -0.0249627 0.0 
1.00979 0.00101714 0.0 
0.608171 -0.292629 0.0 
1 0 0.0 
0.917898 0.0330351 0.0 
0.762146 0.305071 0.0 
0 0 0.0 
1.00188 -0.00276067 0.0 
3.66735e-12 -2.9758e-12 0.0 
0.844378 -0.0160703 0.0 
0.14974 0.0265046 0.0 
2.44837e-24 1.62072e-25 0.0 
3.16096e-53 4.09168e-53 0.0 
-4.79884e-16 4.65977e-17 0.0 
0.42396 -0.124291 0.0 
2.52337e-48 -1.21748e-48 0.0 
0.34993 0.265611 0.0 
0.579573 -0.434414 0.0 
0.0968471 -0.0897905 0.0 
1.00031 0 0.0 
0.448259 -0.101005 0.0 
0.540604 -0.0345209 0.0 
2.5995e-96 7.60038e-97 0.0 
1.00593 -0.0011861 0.0 
1.0076 -0.00113319 0.0 
1.52767e-05 4.64655e-07 0.0 
0.496061 0.106352 0.0 
0.439219 0.024524 0.0 
0.0663263 -0.00140341 0.0 
1.01366 -0.0110033 0.0 
1.04207 0.0727401 0.0 
0.145033 -0.0822252 0.0 
-4.25192e-14 3.44272e-15 0.0 
0 0 0.0 
1.00507 -0.00113191 0.0 
0.473527 -0.0838183 0.0 
8.5372e-14 1.10512e-13 0.0 
3.98043e-32 5.48975e-33 0.0 
0.461012 -0.0420913 0.0 
0.0126087 -0.000607044 0.0 
0.185859 0.107809 0.0 
2.64097e-195 1.07428e-196 0.0 
0 0 0.0 
0.19759 0.178577 0.0 
6.53427e-06 5.44305e-07 0.0 
0.946253 0.181673 0.0 
0.74876 0.27729 0.0 
0.137998 0.00721586 0.0 
1.01935 0.0101039 0.0 
1.07932 -0.20157 0.0 
0.15042 0.0177431 0.0 
1.00799 0 0.0 
1.84257e-06 3.04282e-07 0.0 
0.935991 -0.0989252 0.0 
0.0330456 -0.0118015 0.0 
0.491695 -0.0487149 0.0 
0.768999 0.364448 0.0 
0.747056 0.0633612 0.0 
0.579372 -0.0613967 0.0 
0.199502 0.0239106 0.0 
0.863493 0.354057 0.0 
0.493075 -0.172113 0.0 
0.814524 0.355983 0.0 
0.242949 0.0263314 0.0 
1.0094 -0.00174012 0.0 
0.94331 -0.334635 0.0 
1.00254 -0.00412824 0.0 
0.746384 -0.0901591 0.0 
0.958204 -0.167328 0.0 
0.782337 0.135095 0.0 
0.00927074 -0.00083792 0.0 
1.04975 0.102522 0.0 
0 0 0.0 
0.01598 0.000274828 0.0 
0.00576339 1.88242e-05 0.0 
0.415646 -0.00488431 0.0 
0.124655 0.0175539 0.0 
0.0458383 -0.00980317 0.0 
0.407363 -0.00321959 0.0 
0.810087 0.127196 0.0 
0.00339593 -0.000419009 0.0 
0.455423 -0.0477186 0.0 
0.621115 0.370609 0.0 
0.0056288 0.0005826 0.0 
0.119882 -0.00705194 0.0 
0.0407035 -0.0162187 0.0 
1.0254 0.0594528 0.0 
1.91769e-266 -2.45937e-266 0.0 
0.686399 -0.0463793 0.0 
1.00902 -0.0013989 0.0 
0.45113 -0.00467105 0.0 
0.697548 -0.44902 0.0 
0.767831 0.0872996 0.0 
5.31062e-06 -3.82429e-07 0.0 
0.00887397 0.000368663 0.0 
0.555067 -0.134672 0.0 
0.918643 0.282927 0.0 
0.945119 -0.00189074 0.0 
0.772228 -0.290246 0.0 
-1.58328e-33 -2.04945e-33 0.0 
4.66494e-05 4.0508e-06 0.0 
1.00766 -0.000212403 0.0 
0.00694343 0.000538562 0.0 
0.171471 0.0126763 0.0 
0 0 0.0 
0.128633 0.0239135 0.0 
1.01071 4.86984e-05 0.0 
1.0119 -0.00168685 0.0 
0.00186731 -0.000341579 0.0 
0.591029 0.0805552 0.0 
0.0429284 -0.0166708 0.0 
0.985659 -0.0293899 0.0 
0.136418 -0.01237 0.0 
-1.63949e-177 -1.077e-178 0.0 
1.00441 -0.00209062 0.0 
0.892186 -0.301281 0.0 
0.92862 0.000310983 0.0 
0.497152 -0.35329 0.0 
0 0 0.0 
0.00965143 0.000818443 0.0 
0.862136 0.258515 0.0 
-1.14037e-41 8.93316e-43 0.0 
1.01062 0.00178634 0.0 
1.00982 0.00147498 0.0 
0.817923 0.364052 0.0 
1.00024 0.00139707 0.0 
0.111989 0.0361804 0.0 
0.439347 -0.0102636 0.0 
0.00115039 -9.19833e-05 0.0 
0.966171 0.305162 0.0 
0.946242 -0.00445103 0.0 
0 0 0.0 
0.175698 -0.0171561 0.0 
0.013016 0.000559838 0.0 
0.477655 -0.0048865 0.0 
3.69587e-48 -9.32712e-50 0.0 
0.279788 -0.0323189 0.0 
0.0164017 0.000900985 0.0 
0.0663339 0.00378152 0.0 
1.54631e-06 -1.69643e-07 0.0 
-2.5962e-18 -8.82115e-20 0.0 
1.00045 0.00516993 0.0 
0.289793 0.00675297 0.0 
0 0 0.0 
0.0128113 0.00116831 0.0 
0.014604 0.000883026 0.0 
0 0 0.0 
-1.55427e-48 -4.76024e-50 0.0 
1.01221 -0.29418 0.0 
-4.31926e-36 3.88944e-37 0.0 
0.323419 0.165601 0.0 
0.999257 -0.00322241 0.0 
1.27323e-58 2.05117e-59 0.0 
0.879394 -0.0733587 0.0 
0.999522 -0.000238138 0.0 
0.00103336 -5.88645e-05 0.0 
0.463504 0.0648119 0.0 
0 0 0.0 
1.00341 -0.00366526 0.0 
0.970564 0.0024153 0.0 
1.0069 0.256726 0.0 
0.0273481 0.000253572 0.0 
0.0398509 -0.00510923 0.0 
0.00013525 -7.08046e-06 0.0 
0.952831 0.00191269 0.0 
1.01051 -0.00135458 0.0 
0.0231335 0.00129635 0.0 
0.0395847 0.00452106 0.0 
0.609325 -0.464313 0.0 
0.170322 0.00113799 0.0 
0.727356 0.191243 0.0 
1.00629 0 0.0 
0.678229 0.199128 0.0 
0.398364 -0.14801 0.0 
0.500845 0.151963 0.0 
1.00865 -0.00124938 0.0 
0 0 0.0 
-7.62452e-19 -4.75537e-20 0.0 
1.00891 -0.000771085 0.0 
1.03639 -0.27286 0.0 
0.0539445 -2.30338e-06 0.0 
0.999494 0.00263504 0.0 
0.339376 0.01254 0.0 
0.593523 -0.0733352 0.0 
1.00132 -0.143998 0.0 
0.0102043 -0.000507357 0.0 
0.00111285 -0.00019683 0.0 
0.0130974 -0.000703206 0.0 
0.951303 -0.0716583 0.0 
1.01056 -0.00253666 0.0 
8.02158e-242 -8.74578e-242 0.0 
1.09296 -0.0961588 0.0 
1.00807 -0.0449027 0.0 
0.00570866 0.000104553 0.0 
1.00768 -0.000620673 0.0 
1.01372 -0.00218117 0.0 
2.17803e-05 -2.17829e-07 0.0 
0.54948 -0.0154789 0.0 
0.432339 0.0768788 0.0 
0.996512 -0.00572225 0.0 
1e-307 1e-307 0.0 
0 0 0.0 
0.139733 0.00528648 0.0 
-4.46891e-17 -1.44638e-18 0.0 
0.943674 -0.359661 0.0 
0.876304 -0.0124922 0.0 
0.692894 -0.289513 0.0 
0 0 0.0 
1.01043 -0.00196877 0.0 
0.0484849 -0.00344613 0.0 
0 0 0.0 
0.129016 -0.00898525 0.0 
1.03257 -0.0012202 0.0 
1.00975 -0.00201674 0.0 
0.574501 0.222762 0.0 
0.650267 0.276655 0.0 
0.491114 0.0314922 0.0 
0.921811 -0.303172 0.0 
0.0471341 -0.011833 0.0 
1.00003 0.000515629 0.0 
0.745546 -0.42848 0.0 
0.951512 0.283723 0.0 
1.0025 -0.00271326 0.0 
0.388201 -0.0247006 0.0 
0.0433144 0.0101916 0.0 
0.117583 -0.0214655 0.0 
0.819491 -0.244853 0.0 
0.905349 0.33196 0.0 
0.16108 0.167827 0.0 
0 0 0.0 
1.00881 0 0.0 
1.00861 0.00120347 0.0 
0.0330969 -0.0150335 0.0 
1.01735 -0.111265 0.0 
0.843464 -0.0089058 0.0 
0.802256 -0.352216 0.0 
1.00146 0.00244088 0.0 
1.00788 0.00116546 0.0 
0 0 0.0 
0.65555 0.115506 0.0 
0.454573 0.160306 0.0 
1.00269 0.152643 0.0 
1.00902 0.00896158 0.0 
0.645289 -0.00937869 0.0 
1.01307 -0.131674 0.0 
1.0071 0.000179423 0.0 
0.940431 -0.0214042 0.0 
0.284538 0.00943863 0.0 
0.973775 -0.0142861 0.0 
0.000220128 -3.78024e-05 0.0 
1.00855 0.00108426 0.0 
0.0493849 -0.00533238 0.0 
0 0 0.0 
1.05233 0.00114365 0.0 
1.00843 0.000229613 0.0 
1.00051 0.00058899 0.0 
0.133522 -0.0766795 0.0 
0.682551 -0.107267 0.0 
1.01029 0.00142688 0.0 
0.016282 0.000513388 0.0 
0.999969 0.00202355 0.0 
0.964001 -0.191998 0.0 
0 0 0.0 
1.00001 0.00108407 0.0 
0.0112051 0.000428889 0.0 
0.536769 -0.0620866 0.0 
0.968774 -0.341694 0.0 
-9.33005e-14 1.21407e-14 0.0 
0.889673 -0.0276055 0.0 
0.872041 -0.0450575 0.0 
1.00981 -0.00184818 0.0 
0.999971 -0.00306143 0.0 
0.848998 0.33169 0.0 
0.350214 0.240355 0.0 
0.0250466 0.0067496 0.0 
1.00866 0.00100859 0.0 
0.0172371 0.00108836 0.0 
5.31754e-71 -6.58368e-73 0.0 
1.01061 0.270871 0.0 
0.719392 0.241992 0.0 
0.561161 -0.208178 0.0 
0.00572661 0.000161236 0.0 
-1.03789e-43 5.41607e-45 0.0 
0.806098 0.165335 0.0 
1.01154 -0.00213696 0.0 
0.842876 0.345682 0.0 
0.841021 0.322558 0.0 
0.846506 0.296951 0.0 
3.74877e-12 3.99751e-12 0.0 
1.02105 -0.00656582 0.0 
1.00001 -0.000533391 0.0 
0.606872 -0.0396677 0.0 
0.881373 -0.0714518 0.0 
0.219616 -0.0418788 0.0 
0.0888816 0.00586026 0.0 
0.616024 -0.116883 0.0 
1.00481 0 0.0 
1.00201 -0.00363261 0.0 
0.564005 0.0550087 0.0 
-1.85947e-14 -4.83934e-16 0.0 
0.939674 0.0311594 0.0 
0 0 0.0 
0.157916 -0.251944 0.0 
0.244649 0.0443591 0.0 
0.00616415 0.000300909 0.0 
0.837509 0.198606 0.0 
0.298534 -0.0259279 0.0 
0.0500331 0.0164176 0.0 
0 0 0.0 
1.0104 -0.000335581 0.0 
0.88968 0.00955646 0.0 
0 0 0.0 
0.0448422 0.00252084 0.0 
6.09137e-92 -7.03749e-93 0.0 
0.662311 0.00752523 0.0 
0.621369 -0.0377384 0.0 
0.840972 0.341612 0.0 
0.000628788 8.27326e-05 0.0 
0.0198012 0.000638433 0.0 
1.00002 0.000495076 0.0 
0.35352 0.0905505 0.0 
1 0 0.0 
0.73533 0.301907 0.0 
0.135417 0.00416017 0.0 
0.189104 0.0100881 0.0 
0.619863 0.0109189 0.0 
1.00055 0.00243753 0.0 
1.02903 0.0317052 0.0 
3.741e-06 2.9419e-07 0.0 
0.594106 -0.0277535 0.0 
0.0672255 -0.0062186 0.0 
0.00899414 -0.00284896 0.0 
0.0753643 0.0155305 0.0 
0.859326 -0.402557 0.0 
0.226221 0.0237836 0.0 
1.00745 0.000196218 0.0 
0.882798 0.341577 0.0 
-5.6582e-16 4.61021e-17 0.0 
0.952509 -0.0459463 0.0 
0.000148495 1.99152e-05 0.0 
1.01137 -0.00168447 0.0 
0.677947 -0.367249 0.0 
1.00492 0.00113441 0.0 
1.00937 0.000162635 0.0 
0.593509 -0.143037 0.0 
7.03846e-05 6.88655e-06 0.0 
-4.38514e-102 -1.66888e-102 0.0 
0.999545 0.00105714 0.0 
0.0758797 0.104684 0.0 
0.84142 0.0233667 0.0 
1.06285 0.135382 0.0 
1.00568 -0.000272252 0.0 
1.00053 0.00426111 0.0 
0.339626 -0.243965 0.0 
1.00685 0.000262429 0.0 
0.999953 -0.00049279 0.0 
0.0790106 0.00384406 0.0 
1 2.80253e-100 0.0 
5.38445e-95 1.63347e-96 0.0 
1.00776 -0.00079858 0.0 
0.11253 0.00192321 0.0 
0.311482 -0.262633 0.0 
0.229887 0.0214228 0.0 
0.0178962 0.000454364 0.0 
1.00498 -0.00287184 0.0 
0.999516 -0.0025241 0.0 
0.159251 0.0523536 0.0 
0.470198 -0.0258319 0.0 
1.0078 -0.00170185 0.0 
-6.24046e-33 6.50517e-34 0.0 
0.0375706 -0.00863253 0.0 
0.350713 0.0508616 0.0 
0.999926 -0.00226418 0.0 
0.256214 -0.0269266 0.0 
0.00170652 -0.000405303 0.0 
0.0305115 0.0431219 0.0 
0.0703976 0.00605519 0.0 
1.01767 -0.0119108 0.0 
1.0164 0.116543 0.0 
0.888457 0.346049 0.0 
1.00331 -0.00790429 0.0 
0.00318646 0.000371779 0.0 
3.68864e-114 -3.5788e-115 0.0 
1.00875 0.000191887 0.0 
0.301114 0.116831 0.0 
0.526803 0.0957823 0.0 
0.141689 -0.0153025 0.0 
0.982276 0.175504 0.0 
0.979222 0.00159247 0.0 
1.00802 0.000177086 0.0 
0.984904 -0.0308165 0.0 
0.425689 0.0143738 0.0 
1.0056 0.007504 0.0 
1.00718 -0.000313093 0.0 
0.509925 0.23664 0.0 
0.998842 -0.000129814 0.0 
1.06317 -0.0569476 0.0 
0.0726599 -0.00833042 0.0 
0.217725 -0.0186367 0.0 
0.275331 0.0800802 0.0 
1.00751 0.00124507 0.0 
0.975185 0.283115 0.0 
0.997245 -0.00321536 0.0 
0.25982 0.0110551 0.0 
-4.28472e-257 -2.88763e-258 0.0 
1.01096 -0.00137729 0.0 
1.0071 0.00054859 0.0 
0.999634 -0.00159497 0.0 
0.242397 0.237738 0.0 
1.00197 -0.099522 0.0 
1.04411 -0.0952114 0.0 
9.30467e-248 3.64834e-249 0.0 