<VTKFile type="UnstructuredGrid" version="0.1" byte_order="LittleEndian">
  <UnstructuredGrid>
    <Piece NumberOfPoints="12544" NumberOfCells="24934">
      <Points>
        <DataArray type = "Float64" NumberOfComponents="3" format="ascii">
0 0 0.0 
14 0 0.0 
14 8 0.0 
0 8 0.0 
6.24676 7.79589 0.0 
12.8057 1.94595 0.0 
0.483697 5.24337 0.0 
4.40328 3.95604 0.0 
4.00154 3.98793 0.0 
4.02495 4.02882 0.0 
4.04881 4.03914 0.0 
4.08596 3.93674 0.0 
3.97604 3.95579 0.0 
4.63537 3.98127 0.0 
3.9944 4.00023 0.0 
4.31481 2.21348 0.0 
4.05477 4.02613 0.0 
4.91354 3.9946 0.0 
8.29677 5.77683 0.0 
5.0027 3.99265 0.0 
4.94854 4.00783 0.0 
4.00922 3.99881 0.0 
4.02803 4.04844 0.0 
4.55072 4.05872 0.0 
4.01927 3.99345 0.0 
4.96958 4.00653 0.0 
5.00748 4.02107 0.0 
4.00675 3.9944 0.0 
3.98196 3.98783 0.0 
5.02294 4.01619 0.0 
4.36023 4.05917 0.0 
4.09476 4.08011 0.0 
4.03416 4.05264 0.0 
4.12387 3.9193 0.0 
5.00166 3.98677 0.0 
4.18445 4.063 0.0 
3.99028 3.89844 0.0 
4.05811 3.97305 0.0 
4.05663 3.97345 0.0 
4.23725 3.96747 0.0 
10.8652 0 0.0 
3.99967 4.0114 0.0 
4.03066 4.0465 0.0 
4.62278 3.95949 0.0 
4.99901 3.9997 0.0 
4.00635 4.01543 0.0 
14 6.11123 0.0 
4.01098 3.98653 0.0 
3.96293 3.99513 0.0 
4.18195 4.06239 0.0 
3.99483 4.02144 0.0 
3.81363 3.82113 0.0 
3.99922 3.99464 0.0 
4.3228 4.06081 0.0 
4.25513 3.92087 0.0 
4.38275 3.95826 0.0 
14 5.21618 0.0 
8.55881 8 0.0 
4.18328 4.0451 0.0 
13.7098 2.56437 0.0 
4.03776 4.02916 0.0 
4.97387 4.0066 0.0 
4.01308 4.00992 0.0 
4.99318 3.98687 0.0 
7.41748 3.97669 0.0 
4.27441 4.05318 0.0 
4.23725 3.95116 0.0 
3.91119 2.84104 0.0 
5.00128 3.99352 0.0 
4.0516 4.01972 0.0 
5.04579 4.04273 0.0 
4.18719 3.94401 0.0 
9.47388 3.48409 0.0 
4.09169 3.91732 0.0 
4.05017 4.02449 0.0 
4.04452 3.97044 0.0 
4.17447 4.07538 0.0 
4.05951 3.97283 0.0 
3.26741 4.2006 0.0 
10.1833 0.248119 0.0 
4.02875 4.04115 0.0 
3.73593 1.32342 0.0 
12.6783 2.99528 0.0 
3.97908 4.02017 0.0 
1.26284 5.53443 0.0 
12.8844 7.3017 0.0 
4.99939 3.99739 0.0 
5.01338 4.01449 0.0 
5.1819 4.12653 0.0 
4.61931 3.97956 0.0 
4.02854 4.02724 0.0 
4.88989 4.0683 0.0 
5.65359 6.57916 0.0 
4.15544 3.92346 0.0 
4.0252 4.0244 0.0 
5.01586 4.00977 0.0 
3.91653 4.75071 0.0 
4.02244 4.02798 0.0 
5.03706 4.00709 0.0 
3.95579 4.10249 0.0 
5.0905 2.15481 0.0 
3.99804 4.00956 0.0 
5.01331 3.98969 0.0 
4.28683 4.07003 0.0 
6.88683 2.9813 0.0 
4.12754 3.92728 0.0 
3.99686 4.00472 0.0 
4.79296 3.98918 0.0 
4.9822 4.01335 0.0 
4.6395 4.05217 0.0 
11.9369 8 0.0 
4.19274 4.06236 0.0 
4.32201 4.0739 0.0 
4.24611 4.04104 0.0 
3.99252 4.00665 0.0 
4.00947 4.02943 0.0 
4.16188 4.037 0.0 
5.00397 3.99911 0.0 
4.05784 3.98854 0.0 
3.84288 3.97339 0.0 
4.00605 4.04519 0.0 
4.10081 3.94382 0.0 
4.37443 3.97064 0.0 
4.89735 3.99347 0.0 
5.00368 4.02219 0.0 
10.7396 5.64099 0.0 
4.17928 4.07873 0.0 
4.00296 4.01589 0.0 
4.98109 3.9983 0.0 
4.6587 4.05059 0.0 
3.9818 4.03131 0.0 
3.96476 4.03852 0.0 
4.00385 3.99165 0.0 
3.97233 4.04194 0.0 
4.38929 4.06927 0.0 
1.06014 3.31576 0.0 
4.99847 3.99922 0.0 
4.78412 4.03501 0.0 
4.46782 3.97444 0.0 
3.9831 3.98331 0.0 
4.29394 4.07164 0.0 
4.39931 4.17113 0.0 
4.32584 3.96883 0.0 
4.78601 4.09739 0.0 
4.26693 4.04385 0.0 
4.71582 3.98478 0.0 
13.2653 2.91651 0.0 
4.00756 4.02287 0.0 
4.99076 3.99067 0.0 
4.23103 3.92099 0.0 
4.17857 3.91238 0.0 
4.09476 5.78183 0.0 
4.02074 3.98265 0.0 
4.06374 4.04019 0.0 
3.97185 4.00557 0.0 
4.10608 4.02928 0.0 
4.50985 7.40044 0.0 
4.73098 3.9855 0.0 
4.56437 1.29558 0.0 
8.66724 7.12549 0.0 
5.05919 4.01855 0.0 
2.15923 7.15628 0.0 
4.88677 4.02018 0.0 
4.80917 4.02092 0.0 
4.24524 3.96188 0.0 
7.18887 6.80823 0.0 
1.24078 0.550265 0.0 
9.10545 7.45594 0.0 
2.38032 0.204862 0.0 
4.01517 4.03055 0.0 
3.99882 3.99972 0.0 
4.98582 4.00486 0.0 
3.99908 3.98836 0.0 
3.46938 4.90067 0.0 
4.06368 4.03668 0.0 
7.47511 4.12067 0.0 
4.1938 4.04426 0.0 
4.21507 3.9482 0.0 
4.07965 4.04244 0.0 
4.97222 4.02124 0.0 
8.43382 2.32988 0.0 
4.07001 3.97242 0.0 
4.08667 3.9697 0.0 
5.00674 4.00102 0.0 
11.9473 3.59927 0.0 
5.1327 4.04445 0.0 
1.43223 4.33786 0.0 
4.10016 3.95849 0.0 
5.02611 4.00685 0.0 
3.9901 3.98452 0.0 
4.97439 3.96659 0.0 
5.40034 4.12802 0.0 
4.63269 3.98147 0.0 
4.75648 4.03862 0.0 
4.23011 4.06914 0.0 
4.42569 4.09345 0.0 
4.49801 3.96723 0.0 
4.67895 4.01774 0.0 
3.99899 4.01393 0.0 
4.18439 4.07106 0.0 
3.99632 3.95044 0.0 
13.2253 0 0.0 
9.50167 4.49149 0.0 
8.21994 3.86826 0.0 
4.04578 3.97362 0.0 
5.08198 4.04957 0.0 
5.02947 4.00625 0.0 
4.07912 4.02843 0.0 
7.41888 4.17352 0.0 
4.07157 4.04355 0.0 
4.11494 4.08541 0.0 
1.90962 0.284072 0.0 
3.75797 3.86389 0.0 
1.5342 5.64886 0.0 
3.98048 4.05294 0.0 
6.71972 3.97803 0.0 
4.13386 4.04638 0.0 
3.98816 4.01224 0.0 
4.50982 3.96368 0.0 
0.848755 1.28674 0.0 
3.97871 3.92986 0.0 
3.99752 4.02893 0.0 
4.01884 3.99521 0.0 
4.01748 3.97335 0.0 
3.98628 3.99582 0.0 
5.04696 4.06971 0.0 
4.00248 4.00668 0.0 
5.0041 4.00505 0.0 
4.94616 4.00946 0.0 
3.97707 4.01347 0.0 
4.27711 4.06843 0.0 
9.55669 5.91713 0.0 
3.70083 4.32417 0.0 
13.7902 5.27661 0.0 
4.3171 4.12404 0.0 
4.52458 3.97502 0.0 
3.93549 3.94275 0.0 
4.77225 3.96575 0.0 
4.01932 3.98151 0.0 
5.10311 4.0306 0.0 
4.84075 4.02687 0.0 
1.32075 0.258254 0.0 
4.63965 3.95663 0.0 
4.78412 4.03445 0.0 
4.56035 4.05933 0.0 
13.4902 5.59699 0.0 
5.01057 4.00638 0.0 
4.07958 4.06313 0.0 
4.19291 3.97662 0.0 
1.25039 4.58164 0.0 
9.99655 6.76574 0.0 
3.9961 4.02386 0.0 
5.19186 4.05323 0.0 
4.12787 4.05608 0.0 
4.89873 4.17677 0.0 
3.98111 4.00805 0.0 
4.01116 4.01541 0.0 
3.99352 3.97666 0.0 
0.747562 5.69493 0.0 
4.38525 3.9713 0.0 
4.01707 3.9715 0.0 
8.28094 0.596167 0.0 
3.98586 3.96653 0.0 
4.15093 3.98449 0.0 
11.3109 3.9311 0.0 
5.01231 3.99799 0.0 
6.02682 0.596078 0.0 
4.99696 4.01379 0.0 
4.02402 4.04636 0.0 
11.1485 0 0.0 
5.01715 4.01877 0.0 
4.06133 4.06985 0.0 
5.04267 4.00787 0.0 
3.99417 4.04189 0.0 
7.6181 7.09785 0.0 
4.71441 7.15979 0.0 
3.99997 3.99241 0.0 
4.41092 4.08744 0.0 
4.01049 4.03559 0.0 
3.98918 4.03714 0.0 
2.33011 5.56768 0.0 
5.03099 4.00231 0.0 
0.206973 1.52205 0.0 
4.27012 4.05517 0.0 
4.0005 4.04249 0.0 
4.03562 3.97744 0.0 
4.99662 4.00305 0.0 
6.15338 4.99589 0.0 
3.9896 4.00463 0.0 
8.72833 3.77511 0.0 
3.98613 3.98439 0.0 
4.00738 3.99685 0.0 
4.00273 4.04763 0.0 
4.02428 4.00868 0.0 
4.11039 4.06075 0.0 
4.84791 4.02605 0.0 
3.99463 4.03164 0.0 
3.98643 3.99986 0.0 
4.56409 3.94817 0.0 
4.66219 4.05027 0.0 
3.99581 3.98523 0.0 
4.02648 4.02582 0.0 
4.70365 4.04591 0.0 
3.98481 4.00073 0.0 
3.97761 4.0047 0.0 
8.39153 6.28241 0.0 
12.6602 7.1272 0.0 
4.07155 4.00521 0.0 
3.98558 4.00796 0.0 
4.0343 3.76211 0.0 
6.888 3.99067 0.0 
5.03164 4.01789 0.0 
4.91245 3.99458 0.0 
4.34632 4.0698 0.0 
4.00419 3.99108 0.0 
9.04276 5.96039 0.0 
4.23255 4.06093 0.0 
3.99742 4.04784 0.0 
5.00018 3.98426 0.0 
4.93004 4.03306 0.0 
4.27037 4.11663 0.0 
11.6065 0.594097 0.0 
4.31061 3.99796 0.0 
4.01332 4.02389 0.0 
4.02241 4.04141 0.0 
3.9487 4.03134 0.0 
4.02972 4.05235 0.0 
10.6534 4.29668 0.0 
4.01777 4.04818 0.0 
4.28416 3.92183 0.0 
5.04509 4.05427 0.0 
4.0266 3.96232 0.0 
4.12795 4.02925 0.0 
4.10695 3.94953 0.0 
13.0064 4.46872 0.0 
4.47246 4.11771 0.0 
3.94815 3.96566 0.0 
4.03778 3.99834 0.0 
5.00301 4.00689 0.0 
4.06176 4.00168 0.0 
4.27242 3.94793 0.0 
4.98817 4.01929 0.0 
3.95357 4.06538 0.0 
4.19725 4.07184 0.0 
7.51801 2.51278 0.0 
4.00575 3.98505 0.0 
4.94144 3.99612 0.0 
4.28201 4.0796 0.0 
10.7586 4.66591 0.0 
4.00862 3.99137 0.0 
5.26578 4.14992 0.0 
4.4937 4.07258 0.0 
3.99904 3.97967 0.0 
3.94862 4.04213 0.0 
4.56618 4.08519 0.0 
5.00079 3.98878 0.0 
4.58186 3.97871 0.0 
4.0743 3.95618 0.0 
4.11461 6.33687 0.0 
4.71921 4.04462 0.0 
8.94038 7.70202 0.0 
4.1954 4.06727 0.0 
4.00118 3.99154 0.0 
8.65482 3.84736 0.0 
4.10669 4.05495 0.0 
4.62722 4.05313 0.0 
10.8478 4.42307 0.0 
5.00794 4.01633 0.0 
3.97614 4.01755 0.0 
4.01509 3.97316 0.0 
5.46984 4.17168 0.0 
4.81811 3.98899 0.0 
9.15388 3.83278 0.0 
4.0117 3.99263 0.0 
4.05996 4.02956 0.0 
4.0725 4.06182 0.0 
4.44577 4.06656 0.0 
4.00319 3.98866 0.0 
8.98125 6.17249 0.0 
4.14819 4.06011 0.0 
5.27786 4.09853 0.0 
6.90309 4.14178 0.0 
4.11588 3.96112 0.0 
4.99485 4.00642 0.0 
4.92945 3.98626 0.0 
4.8737 4.00485 0.0 
4.42453 4.05772 0.0 
4.13276 4.05844 0.0 
4.01117 4.01765 0.0 
3.97951 4.02749 0.0 
3.92271 3.87553 0.0 
4.03831 3.95277 0.0 
4.47337 4.0649 0.0 
4.28981 4.11298 0.0 
4.04478 4.01596 0.0 
4.00032 4.00368 0.0 
4.01978 4.02634 0.0 
4.02013 3.99949 0.0 
4.6973 4.17366 0.0 
4.5405 3.97701 0.0 
4.44733 4.06719 0.0 
3.99511 3.99395 0.0 
4.0672 4.1145 0.0 
4.14347 4.06123 0.0 
12.0351 5.61266 0.0 
4.89135 4.15887 0.0 
4.68662 3.98269 0.0 
5.00729 3.97608 0.0 
3.97954 4.04522 0.0 
13.4854 0 0.0 
3.98276 4.03655 0.0 
3.97716 3.98171 0.0 
3.98686 4.01708 0.0 
3.99502 4.01186 0.0 
4.02944 6.04289 0.0 
2.84867 5.48986 0.0 
4.04122 3.94064 0.0 
4.096 3.95606 0.0 
4.04679 4.03119 0.0 
3.97814 4.00223 0.0 
4.07569 4.01841 0.0 
4.18919 3.9015 0.0 
4.92114 3.99447 0.0 
7.26054 3.88529 0.0 
4.99413 3.99304 0.0 
3.98897 4.0168 0.0 
4.3213 4.07013 0.0 
4.33245 3.85432 0.0 
4.91374 3.90571 0.0 
4.69969 4.04604 0.0 
0.675886 6.82819 0.0 
4.99198 4.01221 0.0 
4.51328 4.0507 0.0 
8.51121 4.33185 0.0 
12.1347 7.75548 0.0 
4.40894 4.05264 0.0 
4.65116 3.9826 0.0 
4.26663 3.96709 0.0 
4.0055 4.01029 0.0 
0 4.78467 0.0 
5.0336 4.03132 0.0 
0.42318 6.33854 0.0 
4.00773 3.97774 0.0 
2.51373 2.62624 0.0 
3.993 4.0076 0.0 
4.03638 3.96069 0.0 
4.3913 4.06985 0.0 
11.8818 1.43246 0.0 
6.01531 0.32384 0.0 
4.07878 4.01415 0.0 
4.07277 4.04312 0.0 
5.02176 4.00376 0.0 
4.33079 4.06973 0.0 
5.0074 4.01223 0.0 
4.8416 4.05344 0.0 
3.99583 3.96703 0.0 
4.08771 3.96692 0.0 
4.5267 3.97618 0.0 
4.63695 3.98203 0.0 
4.18675 4.05955 0.0 
11.4683 0.367385 0.0 
1.14947 6.50178 0.0 
3.96506 4.00818 0.0 
4.13619 3.96815 0.0 
4.0106 3.98789 0.0 
4.92207 3.99513 0.0 
12.164 2.52265 0.0 
5.00237 3.99508 0.0 
4.44349 3.94363 0.0 
5.15115 4.08142 0.0 
1.11782 7.38763 0.0 
4.0095 3.9843 0.0 
[...]
<PointData>
  <DataArray type = "Float64" Name="Vitesse" NumberOfComponents="3" format="ascii">
1 0 0.0 
1.00757 0 0.0 
1.00613 0 0.0 
1 0 0.0 
1.00963 -5.44303e-05 0.0 
1.0089 0.000158834 0.0 
0.999967 0.0006462 0.0 
0.238984 0.00540525 0.0 
0.459593 -0.411618 0.0 
0.305493 0.166596 0.0 
0.322863 0.107854 0.0 
1.05042 -0.184512 0.0 
0.81265 -0.223708 0.0 
0.00465213 0.000415459 0.0 
0.208821 -0.15694 0.0 
1.01083 -0.00724015 0.0 
0 0 0.0 
0.00395299 -5.71176e-05 0.0 
1.00937 -0.00166851 0.0 
0.0738195 0.0157795 0.0 
3.45553e-18 -3.33487e-19 0.0 
0 0 0.0 
0.837368 0.360447 0.0 
3.37614e-06 -6.05815e-07 0.0 
0 0 0.0 
0.000495008 -0.000104303 0.0 
0.0595955 -0.0182515 0.0 
-1.0144e-173 2.98869e-174 0.0 
0.590215 -0.228155 0.0 
0.05243 -0.0139035 0.0 
0 0 0.0 
1.00666 0.256069 0.0 
0.869925 0.348802 0.0 
1.08852 -0.142508 0.0 
0.126168 0.0173878 0.0 
0.0839648 0.0107171 0.0 
0.945737 -0.176521 0.0 
0.102901 -0.0234056 0.0 
0.0967315 -0.0205009 0.0 
0.00728413 0.000428444 0.0 
1.00793 0 0.0 
0.221134 0.220544 0.0 
0.814747 0.351877 0.0 
0.247381 0.00897811 0.0 
-2.51591e-114 -1.38734e-114 0.0 
0.175745 0.161594 0.0 
1.00752 -0.000372629 0.0 
0.117021 -0.0724823 0.0 
0.67093 -0.0824589 0.0 
0.0735046 0.00856409 0.0 
0.507455 0.278362 0.0 
0.948488 -0.052904 0.0 
0.192764 -0.293706 0.0 
-4.88308e-112 2.0486e-113 0.0 
0.914436 -0.0394262 0.0 
0.199623 0.00460151 0.0 
1.00709 -0.00132443 0.0 
1.00798 0 0.0 
0 0 0.0 
1.00937 0.000252608 0.0 
3.04148e-28 1.11112e-28 0.0 
0.00216375 -0.000305978 0.0 
0 0 0.0 
0.120856 0.0107438 0.0 
0.67637 0.000795916 0.0 
0 0 0.0 
0.365858 -0.00537039 0.0 
1.00793 -0.0157477 0.0 
0.0652564 0.0141131 0.0 
-1.17549e-258 1.03302e-259 0.0 
0.193531 -0.0263122 0.0 
0.613581 -0.0318253 0.0 
1.00841 0.00162851 0.0 
1.08575 -0.179215 0.0 
4.32167e-71 1.68175e-71 0.0 
0.435596 -0.0982902 0.0 
0.564359 0.0815453 0.0 
0.102012 -0.0209435 0.0 
0.981329 0.00747768 0.0 
1.00809 3.93675e-05 0.0 
0.733899 0.335572 0.0 
1.00573 -0.00368728 0.0 
1.00877 0.000894569 0.0 
0.584312 0.114465 0.0 
0.999947 0.00203536 0.0 
1.0066 -0.000151074 0.0 
0.0259065 0.00671816 0.0 
0.0415804 -0.0152348 0.0 
0.871796 -0.0444402 0.0 
0.0142972 0.000793616 0.0 
0.061658 0.0333247 0.0 
0.322593 -0.0277811 0.0 
1.01182 0.00015133 0.0 
1.0363 -0.103326 0.0 
1.55759e-05 8.19235e-06 0.0 
0.0363166 -0.0103523 0.0 
1.01191 0.0348302 0.0 
0.331778 0.177877 0.0 
0.0610637 -0.00161403 0.0 
0.873054 0.139452 0.0 
1.01306 -0.00286092 0.0 
0.1982 0.181191 0.0 
0.106752 0.0188549 0.0 
0.0585436 0.00144507 0.0 
1.01082 0.00217089 0.0 
1.04895 -0.129858 0.0 
0.118637 0.0284135 0.0 
0 0 0.0 
0.0226446 -0.00444367 0.0 
0.00295692 -0.00024725 0.0 
1.00658 0 0.0 
0.0266254 0.00170056 0.0 
0.124175 0.00181491 0.0 
0 0 0.0 
0.283026 0.0469554 0.0 
0.618252 0.369475 0.0 
0 0 0.0 
0.023824 0.00474672 0.0 
0 0 0.0 
0.887473 -0.0260891 0.0 
0.759309 0.328511 0.0 
0.913685 -0.130187 0.0 
0.00616582 0.000910442 0.0 
0.00641747 0.000277845 0.0 
0.0629222 -0.017644 0.0 
1.00873 -0.000665671 0.0 
0.640096 0.0919776 0.0 
0.307931 0.273609 0.0 
0.00091512 4.27643e-05 0.0 
0.00498097 -0.000542794 0.0 
0.646485 0.182397 0.0 
0.723823 0.121544 0.0 
0.122699 -0.100678 0.0 
0.721328 0.156298 0.0 
0.0206462 -0.000473093 0.0 
0.999471 -0.000560096 0.0 
3.31658e-07 4.97966e-08 0.0 
2.68431e-24 -6.70616e-26 0.0 
1.81603e-05 1.62136e-06 0.0 
0.630315 -0.261821 0.0 
0.091606 0.00525254 0.0 
1.12817 0.0488081 0.0 
0.0151086 0.00101868 0.0 
0.585748 -0.0377063 0.0 
1.15423e-169 1.13373e-170 0.0 
0.00684461 0.000647871 0.0 
1.00884 0.000139877 0.0 
0.473566 0.32841 0.0 
0.0827143 0.00664927 0.0 
0.945617 -0.051243 0.0 
1.0732 -0.0950505 0.0 
1.01183 0.00911955 0.0 
0.0728068 -0.0310399 0.0 
0.0818215 0.019048 0.0 
0.59558 -0.0254156 0.0 
0 0 0.0 
1.00853 0.00128848 0.0 
0.00740046 0.000965169 0.0 
1.00837 -0.00278837 0.0 
1.00819 -0.000566199 0.0 
0.0873803 -0.00938686 0.0 
1.00202 0.00172767 0.0 
6.58848e-05 -7.39604e-06 0.0 
1.13746e-73 -7.66049e-75 0.0 
0.122616 0.000511954 0.0 
1.00972 -0.00101275 0.0 
1.0005 -0.000465755 0.0 
1.0078 -0.000306293 0.0 
1.00202 -0.000374842 0.0 
0.59984 0.338595 0.0 
0.0493911 -0.116781 0.0 
0.00301233 -0.000662596 0.0 
0.478738 -0.445269 0.0 
0.998907 0.0188308 0.0 
-9.09854e-64 -1.96694e-64 0.0 
0.858694 -0.00442216 0.0 
0 0 0.0 
0.460798 -0.0133451 0.0 
-2.67069e-101 -5.09861e-102 0.0 
0.0441601 -0.00693651 0.0 
1.00959 0.000718737 0.0 
0.0448938 -0.0036286 0.0 
0.0789766 -0.00505039 0.0 
0.0258866 -0.000536219 0.0 
1.01261 0.00047023 0.0 
0.255938 -0.022793 0.0 
0.998803 0.00118485 0.0 
0.478148 -0.0517433 0.0 
0.0487583 -0.00345381 0.0 
0.594529 -0.346506 0.0 
0.302708 0.0183765 0.0 
0.883176 -0.0331539 0.0 
1.30628e-68 1.45263e-69 0.0 
9.64144e-05 -6.04926e-06 0.0 
0.136247 0.00963875 0.0 
0.488035 -0.00155487 0.0 
0.105667 0.0041317 0.0 
0 0 0.0 
0.31414 0.267152 0.0 
0.375337 0.049096 0.0 
0.875177 -0.287094 0.0 
1.00766 0 0.0 
1.00868 -0.000951622 0.0 
0.898834 0.00117656 0.0 
0.222056 -0.0431466 0.0 
0.260958 -0.0290791 0.0 
0.0534922 -0.00208248 0.0 
0 0 0.0 
0.954153 -0.00383224 0.0 
0.154939 0.0451225 0.0 
1.01705 0.229311 0.0 
1.00124 -0.000404102 0.0 
0.942711 -0.0352999 0.0 
1.00005 0.00266448 0.0 
0.759708 0.199071 0.0 
0.624342 0.00240567 0.0 
0 0 0.0 
0.433382 0.111305 0.0 
0.156903 0.00577493 0.0 
1.00016 -0.000661307 0.0 
0.887815 -0.201132 0.0 
0.606482 0.31465 0.0 
0 0 0.0 
0.768928 -0.338428 0.0 
0.460402 -0.191881 0.0 
0.416022 -0.0388235 0.0 
3.57228e-21 4.74179e-21 0.0 
0.0191257 -0.0105614 0.0 
2.82727e-17 -3.13488e-18 0.0 
0.56508 0.0526078 0.0 
0.0250302 0.000428078 0.0 
1.0087 -0.000930434 0.0 
0.972226 0.038716 0.0 
1.00873 -0.000715857 0.0 
1.04987 0.0739492 0.0 
0.0201018 0.00162388 0.0 
0.849728 -0.119531 0.0 
0.227699 0.00978506 0.0 
0.226078 -0.0913028 0.0 
0.157361 -0.0165324 0.0 
0.000465637 -7.22335e-05 0.0 
1.00056 -0.000238806 0.0 
0.287129 0.0101867 0.0 
1.52948e-31 -1.53498e-32 0.0 
0.0052101 -0.000391425 0.0 
1.00821 -0.000667672 0.0 
0.0284584 -0.00870268 0.0 
0.837084 0.236857 0.0 
-2.28965e-126 -7.91808e-128 0.0 
0.999249 0.00133733 0.0 
1.00778 -0.000512316 0.0 
0.541334 0.299527 0.0 
0.347068 -0.0254323 0.0 
0.141575 0.0246777 0.0 
1.04666 -0.0413472 0.0 
0.503541 0.0099069 0.0 
-4.34335e-116 -1.47854e-116 0.0 
0.708538 -0.378124 0.0 
1.00002 0.00108157 0.0 
0.00105598 7.98784e-05 0.0 
0.828077 -0.364422 0.0 
1.00858 0.000162004 0.0 
0.772049 -0.28677 0.0 
5.31211e-147 1.47763e-148 0.0 
0.833314 0.000901578 0.0 
0.0503067 0.00742054 0.0 
1.00892 -0.00023908 0.0 
0.0328707 -0.0116979 0.0 
0.818588 0.366215 0.0 
1.00789 0 0.0 
0.0554354 -0.0170073 0.0 
0.969713 0.303326 0.0 
0.0661818 -0.00171499 0.0 
0.710924 0.271007 0.0 
1.00901 -0.000734525 0.0 
1.00932 0.00156475 0.0 
0.27632 -0.34685 0.0 
0.377602 -0.00135017 0.0 
0.705073 0.37555 0.0 
0.675968 0.241427 0.0 
1.00041 0.00526449 0.0 
0.0630474 0.00300918 0.0 
1.00001 -0.000170304 0.0 
0 0 0.0 
0.7267 0.308051 0.0 
0.127697 -0.0308356 0.0 
0.0062135 -0.00190446 0.0 
1.01572 -0.00635169 0.0 
0.344794 -0.0239698 0.0 
0.991524 -0.000780724 0.0 
0.607967 -0.292038 0.0 
0 0 0.0 
0.761688 0.305361 0.0 
0 0 0.0 
0.498889 0.108012 0.0 
0.000497163 -5.48043e-05 0.0 
0.632573 0.285497 0.0 
0.423996 -0.12345 0.0 
0.37888 0.0102271 0.0 
0.00580039 -0.000480854 0.0 
0.578802 -0.433334 0.0 
0.0514911 0.0313305 0.0 
0.00688759 -0.000833331 0.0 
0.448274 -0.100132 0.0 
0.540719 -0.0338901 0.0 
1.009 -0.00122669 0.0 
1.00675 -0.00019154 0.0 
1.24083e-165 1.2188e-166 0.0 
0.439169 0.0253291 0.0 
1.00873 -0.0955259 0.0 
0.621173 0.000256177 0.0 
0.0632607 -0.013203 0.0 
0.00406355 0.000140956 0.0 
0.0175432 0.000960137 0.0 
0.14277 -0.120915 0.0 
1.00888 -0.00113887 0.0 
2.21187e-32 3.90685e-33 0.0 
0.750038 0.279357 0.0 
0.148516 0.0172122 0.0 
0.0763335 -0.00942623 0.0 
1.04235 0.0990181 0.0 
1.00798 7.42933e-05 0.0 
1.03382e-117 1.05475e-118 0.0 
0.392037 0.244344 0.0 
0.76862 0.367438 0.0 
0.746773 0.0635033 0.0 
0.864698 0.354755 0.0 
1.00121 -0.00124946 0.0 
0.814429 0.357063 0.0 
0.867787 -0.0270779 0.0 
0.282075 -0.0315918 0.0 
0.942996 -0.334685 0.0 
-9.41867e-242 8.27715e-243 0.0 
0.7436 -0.0895215 0.0 
1.01029 -3.76477e-06 0.0 
0.851438 0.00208291 0.0 
0.792745 -0.127012 0.0 
0 0 0.0 
0.020884 -0.0121776 0.0 
1.08125e-168 1.06205e-169 0.0 
0.408778 -0.0027932 0.0 
0.0458029 -0.00984802 0.0 
0.810044 0.127434 0.0 
0.342514 0.0406459 0.0 
1.01003 0.00115543 0.0 
0.495192 -0.3528 0.0 
4.22695e-05 3.34299e-06 0.0 
0.32368 0.0178616 0.0 
1.01067 -0.000288387 0.0 
-6.55463e-166 1.93116e-166 0.0 
0.956866 -0.0385954 0.0 
0.127057 -0.00617789 0.0 
0.69646 -0.448563 0.0 
0.767467 0.087588 0.0 
0.350825 -0.0171589 0.0 
0.107677 0.0159689 0.0 
0.00429735 0.000442784 0.0 
0.742688 -0.129419 0.0 
1.00985 0.00546117 0.0 
0.0101025 -0.000885482 0.0 
1.00783 -0.000178317 0.0 
0.191455 0.0228564 0.0 
0.284309 -0.321283 0.0 
0.925167 0.00146004 0.0 
0.288571 0.0631869 0.0 
0.000325391 -6.10717e-06 0.0 
1.01068 -0.0010698 0.0 
0.0437546 -0.0168263 0.0 
0.59046 0.0808045 0.0 
0.8035 -0.373198 0.0 
0.985532 -0.0294394 0.0 
0.0135677 0.000854605 0.0 
0.943003 -0.000377554 0.0 
-2.0458e-161 6.02745e-162 0.0 
0 0 0.0 
0.85417 0.254633 0.0 
0.00724635 0.000296496 0.0 
0.371675 -0.328032 0.0 
1.00873 -0.00104327 0.0 
0.169148 0.0294733 0.0 
0.714736 -0.0369966 0.0 
0.912099 -0.006619 0.0 
0.307637 -0.0249076 0.0 
0.0132998 -0.00454907 0.0 
0.0888407 0.00428481 0.0 
1.30483e-89 1.55348e-90 0.0 
-1.02472e-60 2.72474e-62 0.0 
0.208388 0.0359048 0.0 
0.085819 0.0620768 0.0 
0.628997 0.154856 0.0 
0.925256 -0.104802 0.0 
1.00956 -0.295304 0.0 
3.73567e-06 -3.28002e-08 0.0 
0.982199 0.0797491 0.0 
-5.92276e-232 -2.62218e-233 0.0 
0.00613415 0.00542963 0.0 
0.323121 0.169026 0.0 
-1.88096e-292 1.65299e-293 0.0 
1.07863 -0.0232318 0.0 
0.0055851 0.000230473 0.0 
0.0162444 0.000414572 0.0 
0.334774 -0.348662 0.0 
1.00388 0.232228 0.0 
0.24502 0.0371418 0.0 
1.00836 -0.000445711 0.0 
1.01675 -0.0440568 0.0 
0.0144226 0.000964743 0.0 
0.226272 0.0230957 0.0 
0.726965 0.191461 0.0 
1.00763 0 0.0 
0.677685 0.199304 0.0 
0.665184 -0.215941 0.0 
0.500608 0.152374 0.0 
0.320416 0.196473 0.0 
1.01052 0.00756344 0.0 
1.00156 0.00851521 0.0 
1.03591 -0.273514 0.0 
0.592986 -0.073343 0.0 
3.59733e-24 8.70397e-25 0.0 
0.536673 -0.0621468 0.0 
-1.05171e-239 9.24239e-241 0.0 
1.09239 -0.0936509 0.0 
0.00782932 0.00101144 0.0 
0.873216 0.00433361 0.0 
0.0626757 0.00590207 0.0 
0.4777 0.172997 0.0 
0.0326665 0.000720927 0.0 
1.08855 -0.0427919 0.0 
0.833628 0.0261428 0.0 
0.00434246 -0.000147404 0.0 
1.00016 0.000636305 0.0 
0.0255468 -0.00745001 0.0 
-8.58122e-67 8.71659e-68 0.0 
1.00894 -0.00177756 0.0 
1.00659 -5.9977e-05 0.0 
0 0 0.0 
1.96866e-24 2.16035e-25 0.0 
0.0215785 0.000401238 0.0 
9.13859e-298 3.43908e-298 0.0 
1 0 0.0 
0.117544 -0.0215759 0.0 
1.00003 0.000517559 0.0 
0.744145 -0.428617 0.0 
0.99948 -0.0051147 0.0 
0.282417 0.0771224 0.0 
0.923307 -0.280656 0.0 
0.0318081 -0.000324106 0.0 
1.00842 0.00018054 0.0 
1.00876 -0.000139672 0.0 
1.35268e-193 5.53105e-195 0.0 
0.11213 0.0352699 0.0 
0.0474883 -0.000507691 0.0 
0.0206035 0.00142893 0.0 
0.0331274 -0.0150857 0.0 
0.160333 -0.0162558 0.0 
0.801822 -0.352333 0.0 
0.199085 -0.0190813 0.0 
0.00798146 0.000676884 0.0 
1.92068e-09 8.65935e-11 0.0 
-1.58898e-99 -1.25748e-100 0.0 
1.00794 4.60694e-05 0.0 
1.00038 0.00142052 0.0 
0.645017 -0.00896691 0.0 
0.0206119 -0.00260306 0.0 
-1.35304e-80 4.31974e-81 0.0 
0.00361693 0.0002244 0.0 
1.00951 0.000249825 0.0 
0.0518935 0.0138859 0.0 
0.437066 0.00734285 0.0 
0.556153 -0.0393372 0.0 
1.0005 0.000594692 0.0 
0.401958 -0.241893 0.0 
0.96795 -0.0246604 0.0 
0.0266907 0.00240643 0.0 
0.593788 0.0792852 0.0 
0.152281 -0.0316893 0.0 
0.00499985 0.000479864 0.0 
1.00005 0.00162966 0.0 
0.0108546 -0.000369353 0.0 
0.968384 -0.342219 0.0 
1 0 0.0 
9.78299e-19 6.66147e-20 0.0 
8.3337e-28 -1.74937e-28 0.0 
0.850407 0.33072 0.0 
0.965106 0.285036 0.0 
1.00633 -0.00010924 0.0 
1.00934 0.000197025 0.0 
0.974729 0.175169 0.0 
0.104248 0.00700671 0.0 
0.561394 -0.207584 0.0 
0.806346 0.165791 0.0 
0.0143096 -0.000362105 0.0 
0.246669 0.237906 0.0 
0.776586 0.0642588 0.0 
1.01103 -0.00135626 0.0 
0.00898432 -0.000623822 0.0 
1.00001 -0.000531535 0.0 
0.999799 0.00250965 0.0 
0.0153638 0.000536873 0.0 
0.61629 -0.116516 0.0 
0.988329 -0.00578583 0.0 
1.00849 8.50337e-05 0.0 
0.678545 0.00307917 0.0 
0.0024664 -8.03204e-05 0.0 
1.00979 0.00057975 0.0 
0.158544 -0.252033 0.0 
0.0293303 0.00916837 0.0 
1.02574 0.00199233 0.0 
0.444804 -0.0385233 0.0 
0 0 0.0 
0 0 0.0 
0.655807 0.00909349 0.0 
1.00874 0.0602437 0.0 
0.84404 0.342373 0.0 
3.461e-148 3.39961e-149 0.0 
0.969494 -0.00437475 0.0 
0.0782128 -0.0178851 0.0 
0.743098 0.302247 0.0 
0.619281 0.0111581 0.0 
0.0302433 -0.0130702 0.0 
0.063626 0.0677639 0.0 
0.0020848 -0.000196671 0.0 
0.076247 0.0155788 0.0 
0.858211 -0.402473 0.0 
0.966612 0.0083381 0.0 
1.00807 6.5007e-05 0.0 
0.00360698 0.000209274 0.0 
0.400223 -0.022557 0.0 
0.00981462 -0.000481492 0.0 
0.0039411 -0.000477761 0.0 
0.676146 -0.367217 0.0 
1.00493 0.00113377 0.0 
0.593731 -0.14303 0.0 
0.633357 -0.0259117 0.0 
0.696851 -0.160139 0.0 
0.00912613 0.000641051 0.0 
0.769485 0.0399807 0.0 
1.00925 0.000224142 0.0 
1.00055 0.00429433 0.0 
0.0715541 0.0062893 0.0 
1.06008 -0.0310049 0.0 
0.99995 -0.000487923 0.0 
3.20015e-26 1.81879e-27 0.0 
0.681027 0.366666 0.0 
0.164175 0.0130467 0.0 
1.0076 0 0.0 
0.311659 -0.261534 0.0 
1.00499 -0.00287453 0.0 
0.963604 -0.00610159 0.0 
0.470264 -0.0250819 0.0 
0.037073 -0.00834296 0.0 
0.210521 0.0965038 0.0 
0.000266077 2.42093e-05 0.0 
1.63723e-54 -4.43495e-55 0.0 
0.984927 0.0347493 0.0 
0.0794009 -0.0183041 0.0 
0.155094 -0.0556276 0.0 
4.06878e-119 -1.01918e-119 0.0 
0.738429 -0.409076 0.0 
0.000397749 3.82188e-05 0.0 
0.495964 0.236194 0.0 
0 0 0.0 
0.372738 -0.0366469 0.0 
0.0780369 0.0108104 0.0 
0.883937 -0.0146629 0.0 
0.157054 0.00708645 0.0 
0.779691 -0.00990319 0.0 
1.00547 0.00434972 0.0 
0.998871 -0.000144376 0.0 
0.546981 -0.397484 0.0 
1.93544e-289 7.31735e-290 0.0 
2.45273e-11 4.19399e-13 0.0 
0.116522 0.140814 0.0 
0.0235132 -0.00447491 0.0 
2.69405e-05 1.75274e-06 0.0 
0.149458 0.143042 0.0 
0 0 0.0 
0.491706 -0.318657 0.0 
0.718592 -0.158824 0.0 
0.0157727 -0.00111197 0.0 
1.00975 0.000789129 0.0 
1.00388 0.00268432 0.0 
0.0409446 -0.000216823 0.0 
0.00411339 0.00056534 0.0 
8.62524e-06 3.19705e-09 0.0 
0.906031 -0.392121 0.0 
1.00782 9.58929e-05 0.0 
0.838604 -0.333104 0.0 
0.57553 0.36536 0.0 
0 0 0.0 
0.362871 -0.0750342 0.0 
1.01509 0.00245262 0.0 
0.957682 -0.0362927 0.0 
0.78391 -0.276668 0.0 
0.155832 0.0223577 0.0 
0.0730821 -0.00500542 0.0 
0.318356 0.234216 0.0 
-1.5912e-61 -1.24819e-62 0.0 
0.305522 0.0848242 0.0 
0.657647 -0.463726 0.0 
0.227259 0.204199 0.0 
0.749586 -0.0137304 0.0 
-1.53625e-122 1.50506e-123 0.0 
0.836923 -0.422042 0.0 
0.750955 -0.00237377 0.0 
1.08813 0.110221 0.0 
0.153109 0.138165 0.0 
0.214008 0.00560852 0.0 
0.088277 0.00420674 0.0 
0.834893 -0.419123 0.0 
1.38375e-23 -1.37315e-24 0.0 
0.0481308 -0.0167588 0.0 
1.01898 -0.00100243 0.0 
0.842359 -0.0289078 0.0 
0.999953 0.00142993 0.0 
0.311754 -0.00827706 0.0 
0.0641863 -0.00036221 0.0 
-3.06489e-251 2.69342e-252 0.0 
1.01007 0.00137669 0.0 
0.00350018 -0.000380466 0.0 
0.999985 -0.000596413 0.0 
0.49887 0.027747 0.0 
0.571699 0.0115006 0.0 
0.652981 -0.353036 0.0 
0.130374 -0.0200563 0.0 
0.124162 0.020053 0.0 
0.512514 -0.000395303 0.0 
0.344543 0.132068 0.0 
0.999908 -0.00071614 0.0 
0 0 0.0 
0.910104 -0.0271091 0.0 
1.00899 -0.00225743 0.0 
9.37643e-148 2.60817e-149 0.0 
0.516489 -0.0774474 0.0 
0.843163 0.149787 0.0 
1.11826 0.139618 0.0 
1.00424 -0.00413106 0.0 
0.58341 -0.450739 0.0 
0.625133 -0.447116 0.0 
0.685576 -0.255922 0.0 
0.285233 0.0293849 0.0 
0.691018 0.137162 0.0 
0.00562414 0.000455229 0.0 
0.138471 -0.206538 0.0 
0.568213 -0.063939 0.0 
0 0 0.0 
0.0903068 0.0179171 0.0 
0.0108667 0.000661915 0.0 
8.71674e-43 -1.26585e-43 0.0 
0.642891 -0.39632 0.0 
1.00798 -4.96619e-05 0.0 
0.723623 -0.0647099 0.0 
0.104653 -0.176739 0.0 
0.108673 0.0103203 0.0 
0.00981963 -0.000796121 0.0 
0.00636 0.00082922 0.0 
1.00857 0.000233282 0.0 
1.11677 0.097989 0.0 
0.142459 0.0640749 0.0 
0.270031 0.105272 0.0 
0.252363 0.138728 0.0 
1.0081 0.000127354 0.0 
0.999202 -0.00156215 0.0 
1.22599e-85 8.08019e-87 0.0 
0.208289 0.0495309 0.0 
0.579953 0.00582399 0.0 
0 0 0.0 
0.0966937 0.0158429 0.0 
0.109659 0.0336876 0.0 
1.02816 -0.166474 0.0 
1.01827 -0.0220691 0.0 
0.0802029 -0.0121596 0.0 
0 0 0.0 
1.00906 -0.00126844 0.0 
0.860109 0.255434 0.0 
1.00822 0.000127949 0.0 
0.700858 -0.0384738 0.0 
-2.42306e-206 5.51359e-207 0.0 
-1.44701e-94 -5.11455e-95 0.0 
1.0071 -0.000276579 0.0 
0 0 0.0 
0.127916 -0.0516433 0.0 
2.06736e-198 8.45349e-200 0.0 
0.0574143 0.00968703 0.0 
1.00887 -0.0069762 0.0 
0.999672 -0.00398294 0.0 
0.0165212 -0.000984975 0.0 
0.755072 0.349542 0.0 
1.0503 -0.0470368 0.0 
0 0 0.0 
0.239039 0.131593 0.0 
0.0117263 -0.000434872 0.0 
0.695731 0.066705 0.0 
0.999687 -0.00197926 0.0 
0.875828 0.328054 0.0 
1.00358 0.00105724 0.0 
1.00231 0.0049045 0.0 
0.695661 -0.338692 0.0 
0.00404156 0.000370718 0.0 
0 0 0.0 
1.00673 0.00326334 0.0 
1.00925 -0.000966151 0.0 
1.00839 0.000410134 0.0 
0.0135656 0.000736565 0.0 
1.00246 -0.000524341 0.0 
0.00434021 -1.17099e-05 0.0 
0.94924 -0.022821 0.0 
1.00848 0.00020763 0.0 
0 0 0.0 
0.779951 -0.323374 0.0 
1.00871 -0.000329026 0.0 
0.0926729 -0.00774752 0.0 
0.0110887 -0.00298485 0.0 
0.0881672 -0.0178726 0.0 
0.286788 -0.0283552 0.0 
0.0873187 -0.00497964 0.0 
0.592781 0.139367 0.0 
0.027379 -0.00472682 0.0 
0.766151 -0.417422 0.0 
0.998789 -0.00405112 0.0 
0.0216925 0.00711741 0.0 
1.01033 -0.00270318 0.0 
0.977551 -0.040544 0.0 
1.12796 0.0692923 0.0 
0.237569 0.00279219 0.0 
0.0414305 0.0531832 0.0 
1.00096 -0.00210537 0.0 
0 0 0.0 
0.455904 0.288842 0.0 
0.295107 0.0256145 0.0 
0.00341887 -0.000524884 0.0 
0.887884 -0.305607 0.0 
0.869947 -0.0482549 0.0 
0.745315 -0.0450355 0.0 
2.26006e-96 5.75622e-98 0.0 
1.004 -0.000605418 0.0 
0.999997 -0.000171357 0.0 
0.0289326 -0.0068439 0.0 
0.986644 -0.299386 0.0 
0.964901 -0.00263194 0.0 
1.00782 8.2371e-05 0.0 
1.06326 0.168786 0.0 
0.990645 -0.0153265 0.0 
1 0 0.0 
0.0532375 0.00185437 0.0 
0.108327 -0.0197394 0.0 
1.01252 -0.00156958 0.0 
0.0480939 -0.00885424 0.0 
0.802384 -0.440138 0.0 
1.0117 -0.000952514 0.0 
1.00721 -0.000138939 0.0 
1.00779 -0.0315972 0.0 
0.0629099 0.000937791 0.0 
-3.84476e-154 -1.30335e-154 0.0 
1.00096 -0.0122621 0.0 
0.814668 0.133691 0.0 
1.00828 0.000145833 0.0 
0.0332183 0.00382924 0.0 
1.00954 0 0.0 
0.612823 0.128893 0.0 
1.0096 -0.00111693 0.0 
0.00695892 0.00888103 0.0 
0.0108024 0.000802635 0.0 
1.01085 0.00154965 0.0 
1.01066 0.00098438 0.0 
0.544642 0.305144 0.0 
-5.65152e-130 -1.95441e-131 0.0 
0.749911 -0.0415422 0.0 
0.755689 -0.182905 0.0 
1.01158 -0.0126911 0.0 
0.845337 0.0363713 0.0 
0.713648 -0.438022 0.0 
-3.19143e-80 -7.33095e-82 0.0 
0 0 0.0 
3.37309e-05 -2.90479e-06 0.0 
0.00985995 0.000617984 0.0 
0.130244 -0.0235259 0.0 
1.00848 -0.000651446 0.0 
0.502984 -0.0395687 0.0 
0.00953878 0.000246701 0.0 
0.00151383 2.1248e-05 0.0 
0.252872 -0.340309 0.0 
0.00389324 -0.000960049 0.0 
0.484742 -0.00502278 0.0 
0.0579493 0.000576824 0.0 
0.894752 -0.120426 0.0 
0.459008 -0.0290385 0.0 
0.37371 0.0255706 0.0 
0.0563625 -0.0062724 0.0 
0.144961 -0.023221 0.0 
1.00084 0.001738 0.0 
1.115 0.0498206 0.0 
0.0232859 -0.00791567 0.0 
0.101076 0.0216105 0.0 
0.741507 -0.0190128 0.0 
0.104584 -0.0206726 0.0 
0.718843 -0.401642 0.0 
0.670648 -0.00558216 0.0 
0.64873 -0.105216 0.0 
1.0006 0.00176022 0.0 
1.0087 0.000236798 0.0 
1.0001 0.00104935 0.0 
0.354931 0.183839 0.0 
3.37305e-19 1.03875e-20 0.0 
1.01048 -0.000770589 0.0 
0.00930746 0.000282282 0.0 
1.00862 0.000203832 0.0 
0.537012 -0.111769 0.0 
0 0 0.0 
0.703039 0.00321855 0.0 
0.473223 0.188127 0.0 
0.228217 -0.141708 0.0 
0.0156311 0.00150987 0.0 
0.614422 -0.462605 0.0 
0.39973 -0.0106477 0.0 
0.988496 -0.109552 0.0 