<VTKFile type="UnstructuredGrid" version="0.1" byte_order="LittleEndian">
  <UnstructuredGrid>
    <Piece NumberOfPoints="12828" NumberOfCells="25495">
      <Points>
        <DataArray type = "Float64" NumberOfComponents="3" format="ascii">
0 0 0.0 
14 0 0.0 
14 8 0.0 
0 8 0.0 
4.16782 4.09801 0.0 
13.5492 6.05431 0.0 
8.42856 0.411382 0.0 
4.94189 4.01115 0.0 
4.09208 3.95602 0.0 
4.15527 4.05772 0.0 
4.33592 4.0755 0.0 
12.5519 3.31686 0.0 
4.03683 3.94561 0.0 
4.91112 4.08074 0.0 
3.96554 4.00011 0.0 
4.03692 3.98105 0.0 
4.41251 4.06978 0.0 
4.05577 3.97468 0.0 
4.10788 4.05082 0.0 
3.94945 3.97905 0.0 
4.01323 3.99894 0.0 
3.99476 4.00532 0.0 
4.25007 4.10489 0.0 
4.17926 4.05465 0.0 
4.80182 3.98933 0.0 
4.71759 3.98429 0.0 
12.7433 3.1185 0.0 
4.00962 4.08349 0.0 
4.2064 3.96714 0.0 
13.8451 3.78091 0.0 
4.2685 3.94536 0.0 
4.36723 4.05555 0.0 
4.3499 4.09247 0.0 
5.01542 3.99915 0.0 
3.89414 3.99216 0.0 
4.70467 4.05356 0.0 
8.74131 3.20122 0.0 
4.17759 3.97818 0.0 
4.09533 4.03459 0.0 
4.00922 3.99881 0.0 
3.9963 3.99794 0.0 
4.16124 4.03247 0.0 
4.24753 3.96661 0.0 
4.31798 4.07093 0.0 
4.09749 3.97085 0.0 
0.442394 3.76884 0.0 
3.93682 3.99751 0.0 
4.11094 4.03801 0.0 
10.6943 7.26664 0.0 
4.23751 3.97428 0.0 
4.19353 4.07857 0.0 
4.68162 4.04703 0.0 
4.0882 3.98163 0.0 
4.19813 3.9367 0.0 
4.97412 4.0058 0.0 
4.01706 3.99618 0.0 
4.02815 4.04832 0.0 
4.02979 4.09646 0.0 
4.69533 3.98349 0.0 
4.22839 4.07125 0.0 
4.98229 4.00539 0.0 
7.41876 0 0.0 
4.7121 4.04421 0.0 
4.18238 3.96351 0.0 
4.96507 4.02144 0.0 
4.91465 3.80243 0.0 
12.2199 5.41672 0.0 
4.01647 3.99236 0.0 
3.84533 3.86229 0.0 
4.61224 4.06564 0.0 
4.15285 4.12867 0.0 
4.7992 3.98873 0.0 
4.0339 4.05256 0.0 
4.1462 4.04389 0.0 
4.0192 3.99331 0.0 
5.08169 4.0101 0.0 
6.09238 6.68174 0.0 
4.97524 4.02614 0.0 
4.17785 3.95317 0.0 
4.24706 3.92199 0.0 
5.00785 4.00312 0.0 
10.8833 7.73481 0.0 
3.99379 4.00703 0.0 
14 6.11123 0.0 
4.18442 4.04414 0.0 
4.01763 3.98265 0.0 
3.96293 3.99513 0.0 
4.25914 4.06971 0.0 
4.08941 3.95076 0.0 
4.95323 3.99575 0.0 
4.73324 0.451571 0.0 
4.55011 4.06057 0.0 
3.88293 4.06948 0.0 
4.05073 3.98233 0.0 
3.96023 4.01528 0.0 
4.73621 4.04158 0.0 
14 7.3383 0.0 
3.99922 3.99464 0.0 
5.03684 4.01469 0.0 
4.14447 4.05716 0.0 
4.04894 3.98467 0.0 
4.43167 4.06738 0.0 
4.09624 3.96906 0.0 
13.7476 7.47597 0.0 
4.08082 3.97173 0.0 
14 5.21618 0.0 
4.18259 4.06655 0.0 
8.34698 2.91381 0.0 
4.40307 4.05639 0.0 
4.28749 4.07809 0.0 
3.94943 3.96456 0.0 
4.39553 3.97112 0.0 
4.76751 4.0543 0.0 
4.80536 4.01156 0.0 
4.0018 3.99395 0.0 
5.012 4.10727 0.0 
8.32355 0.844616 0.0 
4.35343 3.94951 0.0 
4.66789 4.05003 0.0 
4.07989 3.96872 0.0 
4.71336 4.04531 0.0 
4.35332 4.06183 0.0 
3.05817 4.59047 0.0 
4.34569 4.08404 0.0 
8.72823 1.85216 0.0 
4.37798 8 0.0 
4.12623 4.0709 0.0 
4.08373 4.05666 0.0 
4.09568 4.05562 0.0 
4.98744 4.00401 0.0 
3.99561 3.97379 0.0 
4.27852 0 0.0 
5.04845 4.04311 0.0 
4.29262 4.07791 0.0 
4.9698 4.00788 0.0 
4.80168 4.0334 0.0 
4.13434 4.07811 0.0 
11.183 4.29652 0.0 
0 0.602561 0.0 
4.32542 3.96893 0.0 
4.70266 8 0.0 
4.22826 4.09621 0.0 
4.37425 4.08541 0.0 
5.58984 3.16796 0.0 
4.35017 3.94589 0.0 
4.06244 3.99778 0.0 
4.22225 3.98357 0.0 
2.50209 4.92303 0.0 
5.52872 3.97338 0.0 
4.1741 4.07586 0.0 
5.01574 4.0132 0.0 
4.11518 4.05303 0.0 
4.84472 4.02762 0.0 
4.24217 3.88783 0.0 
4.85247 4.00914 0.0 
3.03862 2.44683 0.0 
3.91267 2.38613 0.0 
4.02873 4.0411 0.0 
4.88146 4.04087 0.0 
4.019 3.93073 0.0 
4.08859 4.05676 0.0 
4.0826 3.93583 0.0 
4.9522 4.04327 0.0 
4.0634 4.04854 0.0 
4.12124 3.98374 0.0 
5.0047 4.00229 0.0 
11.025 6.86164 0.0 
4.14183 3.94415 0.0 
4.07529 3.94387 0.0 
4.24743 3.99271 0.0 
4.6995 4.04514 0.0 
4.99458 4.03862 0.0 
1.36418 3.96174 0.0 
4.02244 4.02798 0.0 
4.25505 4.06011 0.0 
4.12635 4.07409 0.0 
0 1.4212 0.0 
4.91942 3.99444 0.0 
4.0229 4.0327 0.0 
4.08763 4.04593 0.0 
4.9614 3.98808 0.0 
4.10614 4.0458 0.0 
4.46901 4.07523 0.0 
4.25777 4.07923 0.0 
4.9908 4.01037 0.0 
4.6495 4.05138 0.0 
4.0644 3.93891 0.0 
4.71598 3.98472 0.0 
4.16503 4.11076 0.0 
4.64676 3.96061 0.0 
10.7147 3.7173 0.0 
2.5587 5.71188 0.0 
4.19206 3.91938 0.0 
6.88533 6.7293 0.0 
4.41558 4.05658 0.0 
4.09641 3.95124 0.0 
4.12454 3.92729 0.0 
4.08491 4.0641 0.0 
3.96293 4.03138 0.0 
4.93393 4.05029 0.0 
4.06298 3.99231 0.0 
4.35916 4.0592 0.0 
4.28402 3.91733 0.0 
4.24578 4.08867 0.0 
4.21125 3.95113 0.0 
3.99252 4.00665 0.0 
4.94499 4.01104 0.0 
4.17636 4.06982 0.0 
4.01378 4.004 0.0 
5.06876 4.0204 0.0 
3.94066 3.96869 0.0 
5.5541 5.66724 0.0 
3.95819 3.97698 0.0 
4.41201 4.06829 0.0 
5.63383 5.91153 0.0 
4.23165 4.07938 0.0 
4.38965 4.07646 0.0 
4.15636 4.04974 0.0 
3.95778 3.98461 0.0 
4.00303 3.99193 0.0 
3.9419 3.97853 0.0 
4.19057 4.05281 0.0 
4.02004 4.03743 0.0 
4.10081 3.94382 0.0 
3.93713 4.10328 0.0 
4.65837 3.98179 0.0 
6.88398 4.79117 0.0 
3.99651 4.05409 0.0 
4.81208 3.98917 0.0 
4.22913 4.08121 0.0 
5.00368 4.02219 0.0 
9.50544 0.554648 0.0 
3.9771 4.03148 0.0 
4.40446 4.06997 0.0 
4.34707 4.05408 0.0 
4.45445 4.08932 0.0 
4.15561 4.10177 0.0 
4.18309 4.12442 0.0 
3.96476 4.03852 0.0 
4.39631 4.08365 0.0 
4.03681 3.97656 0.0 
3.96822 4.02719 0.0 
3.97233 4.04194 0.0 
3.98573 3.91699 0.0 
4.0293 3.98313 0.0 
9.95529 0.776257 0.0 
4.20876 3.92492 0.0 
3.92251 4.00785 0.0 
4.59087 4.05693 0.0 
4.30929 4.04286 0.0 
4.15123 4.04464 0.0 
5.15491 3.95658 0.0 
8.12661 3.4956 0.0 
4.00891 4.00797 0.0 
9.779 0.219905 0.0 
4.51904 3.97591 0.0 
4.57574 3.96801 0.0 
3.94564 3.99975 0.0 
4.82557 4.03012 0.0 
4.49689 3.97474 0.0 
4.00612 4.04547 0.0 
5.0401 4.02083 0.0 
4.98371 4.01321 0.0 
4.27571 4.05016 0.0 
4.12779 4.12531 0.0 
3.96003 4.10895 0.0 
4.26327 3.91582 0.0 
11.7013 4.10211 0.0 
9.40261 1.25813 0.0 
4.36026 4.08767 0.0 
4.36888 4.08399 0.0 
4.1384 3.95607 0.0 
4.08583 4.02136 0.0 
5.00961 4.08818 0.0 
10.504 7.07543 0.0 
4.10018 3.96296 0.0 
4.99308 4.0035 0.0 
4.05428 3.94079 0.0 
9.70989 7.75915 0.0 
4.80452 4.0329 0.0 
4.02341 4.03456 0.0 
4.09095 4.04812 0.0 
4.52724 7.41561 0.0 
5.05919 4.01855 0.0 
0.293813 2.30474 0.0 
4.02685 3.98004 0.0 
13.1171 3.78691 0.0 
4.22714 3.92146 0.0 
4.00779 3.98649 0.0 
4.04112 3.9778 0.0 
4.14679 7.74188 0.0 
4.86016 4.02429 0.0 
10.5557 3.57892 0.0 
5.65091 4.12529 0.0 
4.06103 3.9941 0.0 
4.0052 4.01095 0.0 
1.24078 0.550265 0.0 
4.16431 3.95433 0.0 
5.8176 3.84856 0.0 
2.38032 0.204862 0.0 
4.9907 4.00844 0.0 
9.1005 7.43296 0.0 
4.89982 3.99471 0.0 
4.26148 3.94171 0.0 
5.24232 4.03065 0.0 
4.01234 4.02852 0.0 
4.01517 4.03055 0.0 
14 1.82768 0.0 
3.99882 3.99972 0.0 
10.9161 4.13227 0.0 
3.92289 3.95232 0.0 
5.1555 4.17357 0.0 
1.42766 7.23915 0.0 
3.99908 3.98836 0.0 
4.94349 4.02646 0.0 
4.12151 3.94609 0.0 
4.32199 3.96794 0.0 
4.30001 6.0012 0.0 
4.98018 3.99698 0.0 
4.01927 3.97989 0.0 
8.14291 4.75234 0.0 
4.97222 4.02124 0.0 
4.12765 3.95773 0.0 
4.64868 4.09226 0.0 
6.25452 4.08467 0.0 
3.99113 3.9585 0.0 
4.2163 3.94824 0.0 
4.01368 3.98463 0.0 
4.22957 3.95099 0.0 
4.51368 4.05546 0.0 
4.25731 4.08266 0.0 
5.1327 4.04445 0.0 
4.09805 3.948 0.0 
4.15953 4.06374 0.0 
3.97323 4.08385 0.0 
4.45035 4.0666 0.0 
4.94836 4.03079 0.0 
4.2631 4.06887 0.0 
3.98472 3.92969 0.0 
3.9901 3.98452 0.0 
4.12408 3.94161 0.0 
4.9699 3.99733 0.0 
3.98196 3.98783 0.0 
4.19183 4.06346 0.0 
4.21773 3.94285 0.0 
4.08139 3.94144 0.0 
4.02169 4.00411 0.0 
4.03513 3.9876 0.0 
7.90112 7.80757 0.0 
5.02189 4.01094 0.0 
4.99187 4.00378 0.0 
4.27119 3.96729 0.0 
5.01331 3.98969 0.0 
4.18118 4.06327 0.0 
4.20152 4.06387 0.0 
4.32504 4.05592 0.0 
4.9749 3.97836 0.0 
9.3283 1.96676 0.0 
4.89716 4.11454 0.0 
3.91284 4.09524 0.0 
3.59386 3.60045 0.0 
4.77504 4.05583 0.0 
5.01259 4.00155 0.0 
4.5661 4.05917 0.0 
4.17983 4.0788 0.0 
2.56604 7.44797 0.0 
4.40875 3.9708 0.0 
4.2489 4.09629 0.0 
5.06347 3.99507 0.0 
13.8157 6.13911 0.0 
4.2295 4.0772 0.0 
4.09391 3.85369 0.0 
5.08198 4.04957 0.0 
5.02947 4.00625 0.0 
10.1585 2.4931 0.0 
4.59772 3.91409 0.0 
4.17898 3.96712 0.0 
4.20263 4.07567 0.0 
4.47158 4.09772 0.0 
4.2574 4.07605 0.0 
1.65747 3.87733 0.0 
12.7254 2.64903 0.0 
3.81869 3.90538 0.0 
4.14096 4.14641 0.0 
3.99883 4.01382 0.0 
4.70865 4.04514 0.0 
8.91489 8 0.0 
4.03334 3.9775 0.0 
4.4325 4.06858 0.0 
4.51601 3.97521 0.0 
4.01165 4.04753 0.0 
4.32397 4.07264 0.0 
8.82727 7.39799 0.0 
4.20227 4.08039 0.0 
4.23985 4.08128 0.0 
4.87039 4.05396 0.0 
4.85645 4.02646 0.0 
4.76169 4.02507 0.0 
4.10203 3.95404 0.0 
3.99752 4.02893 0.0 
4.01884 3.99521 0.0 
4.26259 4.0847 0.0 
4.15582 4.07076 0.0 
4.20362 4.03819 0.0 
4.05175 3.95375 0.0 
4.1339 4.047 0.0 
4.83183 4.0291 0.0 
4.34889 4.1205 0.0 
4.01204 4.00974 0.0 
4.9921 3.96662 0.0 
11.0671 8 0.0 
9.8213 4.80918 0.0 
4.08637 3.98671 0.0 
8.1554 7.24604 0.0 
4.06961 4.04012 0.0 
4.00432 3.99827 0.0 
3.99129 4.00357 0.0 
2.7796 2.2862 0.0 
12.8718 1.38827 0.0 
4.14781 4.05627 0.0 
4.0533 3.97593 0.0 
4.0911 3.98345 0.0 
4.14295 3.97632 0.0 
4.56136 1.56993 0.0 
6.69489 6.95742 0.0 
4.72724 4.04324 0.0 
4.22172 3.9542 0.0 
5.0218 3.98124 0.0 
5.36754 1.46193 0.0 
4.19507 4.0651 0.0 
4.0766 3.95386 0.0 
11.9172 2.40518 0.0 
5.10311 4.0306 0.0 
4.12434 4.06442 0.0 
4.67475 3.98335 0.0 
2.88798 2.91404 0.0 
4.10808 3.96074 0.0 
4.08645 3.96932 0.0 
4.5857 4.05761 0.0 
3.98027 4.05285 0.0 
4.81079 4.03128 0.0 
3.96394 3.89592 0.0 
8.58249 3.36357 0.0 
4.01874 3.97656 0.0 
8.7705 4.30283 0.0 
4.22898 4.08419 0.0 
4.04077 3.99338 0.0 
4.04955 3.95606 0.0 
6.60303 3.80921 0.0 
4.10231 3.92419 0.0 
10.7482 5.34502 0.0 
13.1066 7.48347 0.0 
4.38318 4.05579 0.0 
4.63848 4.03963 0.0 
13.4588 2.01213 0.0 
4.04162 4.00806 0.0 
11.5278 3.58524 0.0 
4.00756 4.02287 0.0 
5.06164 4.02608 0.0 
5.06771 4.12389 0.0 
5.18793 4.05304 0.0 
4.06759 3.96334 0.0 
0.200425 3.57258 0.0 
13.0314 2.11245 0.0 
3.96379 4.09203 0.0 
3.98111 4.00805 0.0 
11.1835 5.05197 0.0 
4.03664 4.0119 0.0 
4.52445 4.30944 0.0 
3.99352 3.97666 0.0 
4.17387 3.91323 0.0 
8.0095 4.36395 0.0 
4.67002 3.84867 0.0 
4.59859 4.0672 0.0 
4.9544 4.01085 0.0 
[...]
<PointData>
  <DataArray type = "Float64" Name="Vitesse" NumberOfComponents="3" format="ascii">
1 0 0.0 
1.00119 0 0.0 
0.999549 0 0.0 
1 0 0.0 
1.03025 0.172102 0.0 
0.999136 -8.68045e-05 0.0 
1.00769 0.000314831 0.0 
3.34653e-05 -2.71806e-06 0.0 
0.622111 -0.08165 0.0 
3.50013e-07 3.05701e-08 0.0 
0.155924 0.00286782 0.0 
1.00135 0.00185196 0.0 
1.02603 -0.289971 0.0 
0.458152 -0.0359681 0.0 
0.646396 -0.0581628 0.0 
3.00643e-88 -4.21781e-89 0.0 
0.0383522 -0.00141979 0.0 
0.0338632 -0.00384942 0.0 
0.0692321 0.0129829 0.0 
0.75891 -0.105202 0.0 
0 0 0.0 
0.200484 0.0288811 0.0 
0.948335 0.0973638 0.0 
0 0 0.0 
0.00314749 0.000250804 0.0 
0.0133251 0.000875545 0.0 
1.00069 0.00148119 0.0 
0.881596 0.245056 0.0 
0.011563 -0.000703293 0.0 
0.999737 0.00114643 0.0 
0.466646 -0.00566316 0.0 
0 0 0.0 
0.531263 0.0145402 0.0 
0.050335 0.00559958 0.0 
0.839833 -0.0256857 0.0 
0.0658962 -0.0064659 0.0 
1.0084 0.000775695 0.0 
0 0 0.0 
0 0 0.0 
0 0 0.0 
0.183436 -0.23867 0.0 
0 0 0.0 
0.027376 0.00114511 0.0 
0.0559243 -0.000834555 0.0 
3.32817e-08 -3.76334e-09 0.0 
0.999896 3.09668e-05 0.0 
0.763787 -0.0384212 0.0 
0 0 0.0 
1.00242 -0.00146378 0.0 
1.12924e-73 6.41254e-75 0.0 
0.568728 0.072718 0.0 
0.00057906 -2.22359e-05 0.0 
-6.7817e-202 7.2396e-203 0.0 
0.756405 -0.0413399 0.0 
0.000521477 -6.92183e-05 0.0 
0 0 0.0 
0.835667 0.359691 0.0 
0.934879 0.247847 0.0 
0.0106211 0.000435993 0.0 
0.208574 0.0158616 0.0 
0.00253785 -0.000537283 0.0 
1.00808 0 0.0 
0.000305651 -3.36067e-05 0.0 
0.107061 -0.00150092 0.0 
0.0414989 -0.00620477 0.0 
1.05101 0.0169613 0.0 
0.995989 -0.000506187 0.0 
0 0 0.0 
0.933228 -0.0610144 0.0 
0.115813 -0.00873129 0.0 
1.09102 0.185626 0.0 
0.00726746 0.000658361 0.0 
0.868339 0.349736 0.0 
-8.58202e-70 -1.47156e-70 0.0 
0 0 0.0 
0.0995468 -0.00116638 0.0 
1.01087 -0.00071021 0.0 
0.0672073 -0.010243 0.0 
0.396206 -0.0164979 0.0 
0.912546 -0.0420862 0.0 
0.0247998 -0.0048195 0.0 
1.00215 -0.000466881 0.0 
0.253726 0.0709475 0.0 
0.999287 -6.03756e-06 0.0 
0 0 0.0 
0.178792 -0.0851206 0.0 
0.671372 -0.0818077 0.0 
0.0873433 0.00422508 0.0 
0.809255 -0.122134 0.0 
0.0114071 0.000590503 0.0 
1.00722 -0.000757403 0.0 
0.00834909 -0.000825842 0.0 
0.870387 0.0506388 0.0 
1.05422e-118 -1.20804e-119 0.0 
0.678576 0.0256661 0.0 
0.00188741 -0.000128377 0.0 
0.999485 -7.7747e-05 0.0 
0.198708 -0.293758 0.0 
0.0619372 -0.00935516 0.0 
0.0626997 0.0139533 0.0 
1e-307 1e-307 0.0 
0.00908836 -0.000420501 0.0 
0.0727367 -0.00627519 0.0 
0.999522 -9.0933e-05 0.0 
2.91493e-07 -3.5091e-08 0.0 
0.999185 0.000393465 0.0 
0.223683 0.0247778 0.0 
1.00843 0.00154554 0.0 
5.31176e-103 1.75154e-104 0.0 
0.274498 0.0110643 0.0 
0.794722 -0.130696 0.0 
0.0103379 0.000357451 0.0 
0.117794 -0.0118084 0.0 
0 0 0.0 
0.0945361 -0.146434 0.0 
0.73996 -0.0499497 0.0 
1.00785 0.000594082 0.0 
0.348303 0.00389956 0.0 
0.00871863 -0.000664741 0.0 
0.163122 -0.0200981 0.0 
0.00952871 -0.00116859 0.0 
3.18901e-101 1.05157e-102 0.0 
0.991386 0.011316 0.0 
0.347879 0.00594529 0.0 
1.00817 0.00153367 0.0 
1.00772 0 0.0 
0.718741 0.14552 0.0 
0.609419 0.162603 0.0 
0.436043 0.107652 0.0 
0.00204697 -0.000387483 0.0 
0.747483 -0.383977 0.0 
1.00615 0 0.0 
0.197819 -0.0263272 0.0 
0.260076 0.0111109 0.0 
0.00308299 -0.000377199 0.0 
0.00401222 -0.000450542 0.0 
0.852658 0.16811 0.0 
0.978157 -0.0127458 0.0 
1 0 0.0 
0.0104434 0.000700997 0.0 
1.00831 0 0.0 
0.864738 0.0971844 0.0 
0.35587 0.0040329 0.0 
1.0169 0.00567843 0.0 
0.413791 0.00293128 0.0 
0 0 0.0 
0 0 0.0 
0.997546 0.00653525 0.0 
0.452323 0.0120462 0.0 
0.580751 0.0817765 0.0 
0.0407626 -0.0135419 0.0 
0.102458 0.0219451 0.0 
0.00437493 -0.000684827 0.0 
1.09381 -0.0685977 0.0 
1.34857e-101 -1.35525e-102 0.0 
1.00132 -0.00740337 0.0 
1.00781 -0.00953807 0.0 
0.732387 0.33271 0.0 
0.0939196 -0.0107238 0.0 
0.974531 -0.256826 0.0 
0.558815 0.144737 0.0 
1.06186 -0.19208 0.0 
0.152379 -0.017414 0.0 
0.541639 0.166914 0.0 
0 0 0.0 
0.018289 -0.00525068 0.0 
1.00152 -0.00216807 0.0 
0.742744 -0.0645887 0.0 
1.01256 -0.19416 0.0 
0 0 0.0 
-1.19236e-17 1.33793e-18 0.0 
0.145823 -0.0209139 0.0 
0.998854 0.000357649 0.0 
0.335656 0.17661 0.0 
8.24621e-130 -1.56137e-131 0.0 
0.803185 0.165368 0.0 
1 0 0.0 
0.00811243 0.00029264 0.0 
0.553472 0.282515 0.0 
0.0603003 0.0121985 0.0 
0.0871088 0.00442483 0.0 
-1.11937e-34 -2.53314e-35 0.0 
0.157954 -0.00606065 0.0 
0.369007 0.027325 0.0 
0.0196398 -0.00533757 0.0 
0.00402985 -0.00018204 0.0 
1.06068 -0.227725 0.0 
0.00876395 0.000854649 0.0 
1.09236 0.184894 0.0 
0.242152 0.00926951 0.0 
1.0011 0.015879 0.0 
1.00133 0.00610105 0.0 
1.01876 -0.0781886 0.0 
1.00973 -0.00129664 0.0 
3.8808e-103 1.27968e-104 0.0 
0.75326 -0.101954 0.0 
1.05446 -0.134387 0.0 
0.82453 0.225356 0.0 
0.70715 0.096826 0.0 
0.192449 -0.0201996 0.0 
0 0 0.0 
0 0 0.0 
0.924435 -0.0325931 0.0 
0.651428 0.0602392 0.0 
0.396401 -0.0105081 0.0 
0.283756 0.0470725 0.0 
0.00097445 -0.000127696 0.0 
0.370875 0.0473875 0.0 
0 0 0.0 
0.0998318 -0.00982408 0.0 
0.797884 -0.105662 0.0 
1.01628 -0.00169406 0.0 
0.743046 -0.134607 0.0 
0.0113522 -0.000491498 0.0 
1.01462 -0.00113194 0.0 
0.446606 0.0407894 0.0 
0.16324 -0.000462342 0.0 
0 0 0.0 
0.720343 -0.111966 0.0 
0.16427 -0.169625 0.0 
0.775652 -0.090495 0.0 
0 0 0.0 
0.715637 0.359572 0.0 
0.915513 -0.131306 0.0 
0.875123 0.115784 0.0 
0.0104315 0.000321465 0.0 
1.01031 -0.00626974 0.0 
0.777514 0.263547 0.0 
0.00875449 0.000709887 0.0 
0.507305 0.0486659 0.0 
0.063216 -0.0176371 0.0 
1.00663 0.000708346 0.0 
0.66204 0.155993 0.0 
0.0381153 -0.000743736 0.0 
-2.0182e-259 -7.38104e-261 0.0 
0.40353 -0.00676795 0.0 
1.06842 0.19144 0.0 
1.10797 0.168465 0.0 
0.724411 0.122218 0.0 
0.308249 0.000142055 0.0 
0.167383 -0.0343179 0.0 
0.673946 0.10026 0.0 
0.721965 0.156837 0.0 
0.919523 -0.194814 0.0 
2.20227e-81 -8.65479e-82 0.0 
1.00605 0.00112421 0.0 
0.934091 -0.0578999 0.0 
0.793263 -0.00994035 0.0 
0.00499274 -0.000166272 0.0 
0 0 0.0 
1e-307 1e-307 0.0 
0.448885 0.0286757 0.0 
1.00797 0.00206907 0.0 
-7.96909e-49 -6.06408e-49 0.0 
1.00619 0.000296901 0.0 
0.00511732 0.000801452 0.0 
0.127182 0.00533344 0.0 
0.736763 -0.0387208 0.0 
0.00387234 -0.000488961 0.0 
0.00862397 1.87504e-05 0.0 
0.761966 0.328374 0.0 
0.0777877 -0.0140518 0.0 
0.0230726 -0.00479946 0.0 
0 0 0.0 
1.07208 0.20238 0.0 
0.882843 0.144325 0.0 
0.963688 -0.0426036 0.0 
0.98463 5.88058e-05 0.0 
1.00702 0.00154073 0.0 
0.414543 0.00700904 0.0 
0.328429 0.00405457 0.0 
0.40528 -0.0271528 0.0 
0 0 0.0 
0.572078 -0.045232 0.0 
1.00281 -0.00192079 0.0 
0.303408 -0.0283582 0.0 
0.00380732 -0.000834377 0.0 
1.05467 -0.249466 0.0 
1.0045 -0.000478062 0.0 
0.00342514 -0.000343499 0.0 
0.611342 0.306744 0.0 
0.129586 0.0356729 0.0 
1.00842 0.00115188 0.0 
0.087452 -0.00945651 0.0 
0.999995 -0.000269339 0.0 
0.121358 -0.0399843 0.0 
0.999489 0.0019802 0.0 
0.946827 -0.0529587 0.0 
0.314802 -0.206277 0.0 
1.24641e-68 -3.46973e-69 0.0 
1.00726 0.000622018 0.0 
-1.61892e-24 6.67141e-26 0.0 
1.02481 0.0149378 0.0 
0.878022 -0.0231217 0.0 
0 0 0.0 
9.20643e-12 9.62985e-12 0.0 
1.00049 -0.000459601 0.0 
0.390626 -0.0190196 0.0 
0.974245 0.0130344 0.0 
1.00199 -0.000368691 0.0 
0.0145656 -0.00382181 0.0 
1.0058 -0.00110008 0.0 
-6.01558e-13 -4.07252e-14 0.0 
0.549711 -0.0105848 0.0 
0.24804 -0.0124345 0.0 
0.582648 0.344104 0.0 
0.603808 0.337208 0.0 
1.00079 0.000859859 0.0 
0.0491225 -0.117414 0.0 
0.945159 -0.0106644 0.0 
0.843507 -0.0938104 0.0 
1.00887 -0.042833 0.0 
1.00083 0.000963985 0.0 
0.479086 -0.445168 0.0 
0.0513312 -0.00697435 0.0 
0.771693 -0.0832442 0.0 
0.0250389 0.00103697 0.0 
1.01235 0.00654485 0.0 
0.0120662 0.00051496 0.0 
0.371529 -0.146057 0.0 
1.00784 -0.00498816 0.0 
0.0444707 -0.00695529 0.0 
0.384345 -0.0288112 0.0 
0.478169 -0.0248782 0.0 
0.739973 -0.011025 0.0 
0.828806 -0.293378 0.0 
0.460147 -0.0130869 0.0 
0.170105 -0.0817111 0.0 
0.378655 -0.00673954 0.0 
2.04022e-53 -3.62881e-55 0.0 
0.464962 0.0363227 0.0 
0.256639 -0.022873 0.0 
0.835256 -0.116332 0.0 
0.239119 0.0319127 0.0 
0.845616 0.172793 0.0 
0.00660811 -0.000259585 0.0 
0.0747495 -0.00969568 0.0 
0.0557187 0.00393101 0.0 
0.897739 -0.212367 0.0 
0.594465 -0.345341 0.0 
0.868694 -0.0974958 0.0 
0.00363238 0.000532346 0.0 
0.59031 -0.227267 0.0 
0.0761229 0.00777019 0.0 
0.584663 -0.0207679 0.0 
1.0219 -0.184826 0.0 
0 0 0.0 
0 0 0.0 
1.00779 -0.00026561 0.0 
0.0436205 -0.0093363 0.0 
0.00376296 -0.00078086 0.0 
0.0190403 0.000709016 0.0 
0.105861 0.0190232 0.0 
0.111913 0.0110538 0.0 
0.0455523 0.00168395 0.0 
0 0 0.0 
0.187728 0.0112799 0.0 
1.00795 0.00226113 0.0 
0.779425 -0.0457977 0.0 
0.873844 0.0873581 0.0 
0.981535 -0.0253835 0.0 
0.13598 -0.0133619 0.0 
0.0372632 0.000547444 0.0 
0.0073797 -0.000216692 0.0 
0.638629 0.0890114 0.0 
1.00298 0.00133689 0.0 
0.0187334 0.000828998 0.0 
0.811123 0.0786991 0.0 
0.121629 0.0112283 0.0 
0.999245 -5.87737e-05 0.0 
0.389451 0.034803 0.0 
1.05195 -0.132372 0.0 
0.261261 -0.0289261 0.0 
0.0532878 -0.00204299 0.0 
1.00848 0.00488769 0.0 
0.791949 0.0108293 0.0 
0.0182418 1.56293e-05 0.0 
0.442894 0.0516642 0.0 
0.548486 -0.00685975 0.0 
0.279334 0.0196913 0.0 
0.998234 0.000231505 0.0 
1.00023 0.0020523 0.0 
0.920029 -0.0437998 0.0 
1.07555 0.17798 0.0 
0.311832 0.266417 0.0 
0.00501937 -0.000186254 0.0 
1.006 0 0.0 
0.160853 -0.0448151 0.0 
0.0284621 -0.0015553 0.0 
0.012357 -5.64349e-05 0.0 
0.7912 0.342943 0.0 
0.0939722 0.00356627 0.0 
1.00632 -0.00111956 0.0 
0.584507 0.0716802 0.0 
0.474495 0.0421637 0.0 
0.182488 -0.0180492 0.0 
0.00645705 -0.000842257 0.0 
-3.18191e-72 1.26496e-73 0.0 
0.630267 -0.0745944 0.0 
0.608218 0.316321 0.0 
0 0 0.0 
0.505636 0.0382661 0.0 
0.519752 0.081817 0.0 
0 0 0.0 
0.964209 -0.236742 0.0 
0 0 0.0 
0.00289353 -0.000282398 0.0 
0.990595 0.0518404 0.0 
0 0 0.0 
0.30921 0.0213864 0.0 
1.00189 0 0.0 
1.01129 -0.00970742 0.0 
0 0 0.0 
1.00748 -0.00115851 0.0 
1.90175e-13 4.36331e-14 0.0 
0 0 0.0 
0.298241 -0.0471201 0.0 
1.00111 -0.00547308 0.0 
1.00157 0.00119538 0.0 
4.16226e-07 5.27361e-08 0.0 
1.05874e-67 -2.89766e-68 0.0 
0 0 0.0 
0 0 0.0 
1.009 -0.00337563 0.0 
1.00967 -0.000874621 0.0 
0.00626364 -0.000727226 0.0 
0.31011 -0.00500675 0.0 
0.181774 0.0238699 0.0 
1.00994 -0.00111429 0.0 
0.118154 0.0176071 0.0 
0.800938 -0.140007 0.0 
1.00164 0.0034835 0.0 
0.157439 -0.0162538 0.0 
0.517181 0.102011 0.0 
0.000382179 3.45184e-05 0.0 
0.99797 -0.00741636 0.0 
0.354471 -0.0333494 0.0 
0.096855 -0.00712452 0.0 
0.00802291 -0.000235784 0.0 
0.759788 0.198313 0.0 
0.000359339 -2.20089e-05 0.0 
0.924626 -0.148441 0.0 
1.00777 0.000970254 0.0 
0.608334 -0.256939 0.0 
1.00565 -0.00265122 0.0 
0.58967 0.05915 0.0 
0 0 0.0 
0.933933 -0.234516 0.0 
0.994025 0.00506471 0.0 
1.08622 -0.166333 0.0 
0.995093 -0.00934904 0.0 
0.999673 -0.000200228 0.0 
4.40252e-105 1.45172e-106 0.0 
1.18284e-215 -5.35572e-217 0.0 
1.0009 0.00117462 0.0 
0 0 0.0 
1.01212 0.00683967 0.0 
0.475821 0.331378 0.0 
0.111462 -0.0151968 0.0 
0.859431 -0.0508763 0.0 
0.34536 -0.0258405 0.0 
0.517293 -0.0907178 0.0 
0.999997 -2.8478e-05 0.0 
1.00107 0.00151004 0.0 
0.858558 0.153005 0.0 
0.504609 0.0104346 0.0 
0.996971 -0.00672707 0.0 
0 0 0.0 
1.0913 0.0201544 0.0 
0.707856 -0.377059 0.0 
1.07383 -0.0980757 0.0 
1.00848 -0.00523268 0.0 
1.05582 0.0034635 0.0 
0.124352 -0.00898818 0.0 
0.00382364 -0.000634942 0.0 
0.656552 -0.285066 0.0 
0 0 0.0 
5.98518e-07 2.72802e-08 0.0 
1.01234 0.00355206 0.0 
0.00499413 0.000292726 0.0 
1.37247e-07 5.97074e-09 0.0 
0 0 0.0 
0.99888 -0.00123212 0.0 
0.235388 0.0735562 0.0 
0.715377 -0.266551 0.0 
1.00048 0.00161587 0.0 
1.48647e-05 2.16867e-06 0.0 
0 0 0.0 
0.00364102 0.000349379 0.0 
0.0226946 -0.00170931 0.0 
1.00055 -0.00130253 0.0 
0.221296 -0.0459127 0.0 
0.0606472 -0.00496138 0.0 
0.716733 0.337635 0.0 
0.524787 -0.0572906 0.0 
0.215707 -0.0021965 0.0 
0.648254 0.257081 0.0 
0.712188 0.271634 0.0 
1.6995e-135 -3.5473e-135 0.0 
0.319976 0.0635281 0.0 
0.778669 -0.0255866 0.0 
0.997985 0.128668 0.0 
1.0036 0.00412299 0.0 
0 0 0.0 
0.767898 0.120552 0.0 
0.864396 0.0666843 0.0 
0.891711 -0.15492 0.0 
1.11378e-98 -2.08733e-100 0.0 
0.470126 0.00413964 0.0 
1.00473 -0.266496 0.0 
-8.71957e-25 -8.59261e-26 0.0 
0.455675 0.0253372 0.0 
1.01011 -0.00339927 0.0 
0.677205 0.242256 0.0 
1.00112 0 0.0 
0 0 0.0 
0.709384 0.375923 0.0 
2.72778e-06 -8.17957e-08 0.0 
0 0 0.0 
1.3891e-121 -4.90487e-122 0.0 
0 0 0.0 
2.22706e-07 3.59522e-07 0.0 
0.728443 0.308801 0.0 
1.00034 -0.00026161 0.0 
0.90543 0.0262389 0.0 
1.35222e-102 4.4589e-104 0.0 
0.345587 -0.0237483 0.0 
0.309221 0.0215462 0.0 
0.607876 -0.290993 0.0 
0.85031 0.104877 0.0 
1.01998 -0.251915 0.0 
0.970341 0.267707 0.0 
1.00023 0.00155572 0.0 
0 0 0.0 
1.00067 -0.000224652 0.0 
1.00884 0.000794798 0.0 
1.00185 -0.00270816 0.0 
0.553656 -0.0635349 0.0 
0.536807 0.0990427 0.0 
0.196904 -0.00830876 0.0 
0.762626 0.305977 0.0 
0.0113969 0.000667693 0.0 
0.0419316 0.0014729 0.0 
7.5755e-226 -3.43005e-227 0.0 
0.424887 -0.123029 0.0 
1.41352e-76 4.61862e-77 0.0 
0 0 0.0 
0.578767 -0.432132 0.0 
0.889064 0.0069131 0.0 
0.428267 0.00417465 0.0 
1.00031 0 0.0 
0.87554 -0.0565493 0.0 
0.449089 -0.099795 0.0 
0.541451 -0.0333266 0.0 
-1.68625e-14 -2.02807e-15 0.0 
1.3287e-105 4.38135e-107 0.0 
0.0686806 -0.0433409 0.0 
1.00947 0.00407503 0.0 
0.722394 0.0546216 0.0 
0.494528 0.107978 0.0 
0.329721 -0.324288 0.0 
0.0665356 -0.00140605 0.0 
0.78164 0.36726 0.0 
0.835497 0.138489 0.0 
3.82428e-05 -5.34398e-06 0.0 
0.0497015 -0.0146447 0.0 
0.132963 0.00833614 0.0 
0.0574871 -0.00564148 0.0 
0 0 0.0 
0 0 0.0 
0.471426 -0.083361 0.0 
0.236301 0.00521684 0.0 
1.0102 -0.00640513 0.0 
0.460322 -0.0433035 0.0 
1 0 0.0 
1.00799 0.000431455 0.0 
0.759735 0.373114 0.0 
0 0 0.0 
0 0 0.0 
0.00255065 -0.000321305 0.0 
0.397482 0.310163 0.0 
0.999737 0.000175372 0.0 
-3.38965e-114 2.33137e-115 0.0 
1.00924 0 0.0 
0.74919 0.277866 0.0 
0 0 0.0 
0.999393 -9.15089e-05 0.0 
0.9939 -0.0110978 0.0 
1.05479 0.0102088 0.0 
0.151039 0.0179398 0.0 
0.573628 -0.209839 0.0 
1.00698 0 0.0 
-1.68846e-12 -2.37813e-13 0.0 
0.789459 0.319534 0.0 
0.641124 -0.00261193 0.0 
-7.08475e-26 6.11286e-27 0.0 
0.032239 0.000817279 0.0 
0.490298 -0.0495166 0.0 
0.769698 0.365515 0.0 
0.74745 0.0639721 0.0 
0.783176 -0.0697634 0.0 
1.00088 0.00237777 0.0 
0.863915 0.354735 0.0 
0.490343 -0.170928 0.0 
0.815504 0.357026 0.0 
0.294767 0.00257485 0.0 
1.01034 -0.00384747 0.0 
0.943364 -0.335244 0.0 
0.572961 -0.0610962 0.0 
0.745553 -0.0904622 0.0 
0.805695 -0.0814058 0.0 
0.740968 -0.206488 0.0 
1.0075 -0.0042316 0.0 
0.141098 -0.0188403 0.0 
0.324719 0.0446342 0.0 
1.05022 0.102608 0.0 
0.0642047 0.0143459 0.0 
0 0 0.0 
0.780251 0.00121266 0.0 
-1.08524e-42 -1.06769e-43 0.0 
0.992566 -0.00484317 0.0 
-1.65358e-41 9.94508e-43 0.0 
-7.53488e-24 -2.75994e-25 0.0 
0.045993 -0.00983011 0.0 
9.87077e-06 1.41915e-06 0.0 
1.00738 0.00522365 0.0 
0.41209 -0.00473147 0.0 
0.810246 0.127555 0.0 
0.0501952 -0.00552724 0.0 
0.0527245 -0.00714388 0.0 
-7.62189e-14 -7.72248e-15 0.0 
0.453553 -0.0476093 0.0 
0.461148 -0.191276 0.0 
0 0 0.0 
0.083516 0.0200848 0.0 
0 0 0.0 
0.7804 0.13687 0.0 
0.987036 -0.00871144 0.0 
1.06619 -0.0367341 0.0 
1.00705 -0.00728608 0.0 
0.10218 0.0607532 0.0 
0.799825 0.0738396 0.0 
1.00256 0 0.0 
0 0 0.0 
0.695757 -0.447582 0.0 
0.767851 0.0880281 0.0 
1.00827 -0.00572472 0.0 
0.189107 0.0402082 0.0 
9.20382e-05 5.17503e-06 0.0 
0.0573044 -0.00257432 0.0 
1.00778 -0.00345222 0.0 
0.405241 -0.00306256 0.0 
0.771355 -0.289403 0.0 
0.0100106 0.000478437 0.0 
0.00398177 0.000792573 0.0 
1.00604 -0.000567938 0.0 
0.998627 3.54199e-05 0.0 
1.10157 -0.00810083 0.0 
0.17241 0.0128468 0.0 
0.997349 0.000187252 0.0 
1.00111 0.00033535 0.0 
0.86017 -0.143026 0.0 
0.0773127 -0.00646438 0.0 
1.00304 -0.00126175 0.0 
0.59177 0.081627 0.0 
0.0431066 -0.0166586 0.0 
1.00854 0.00673299 0.0 
0.000162764 1.06478e-05 0.0 
0.325441 -0.0211986 0.0 
-5.07048e-64 3.12202e-65 0.0 
0.00962417 0.000375822 0.0 
0.991657 0.0149072 0.0 
0.296346 0.00874137 0.0 
0 0 0.0 
0.229732 0.0174242 0.0 
0.00674888 0.000307427 0.0 
0.0294121 -0.00490229 0.0 
0.862158 0.258778 0.0 
1.0041 0.00433444 0.0 
0 0 0.0 
0.0152012 -0.00137543 0.0 
0.0719246 -0.0609032 0.0 
-1.1867e-40 -2.2462e-42 0.0 
0.0645411 0.00217602 0.0 
0.482249 0.0711609 0.0 
0 0 0.0 
0.00458999 0.000137082 0.0 
0.892203 -0.300011 0.0 
0.502762 0.0853999 0.0 
0.966495 0.305851 0.0 
0.453012 0.337903 0.0 
0.141329 -0.0304256 0.0 
0.999818 0.000771747 0.0 
0 0 0.0 
1.01522 -0.00767238 0.0 
1.00004 -0.00039705 0.0 
1.0152 0.000150971 0.0 
0 0 0.0 
0.950946 -0.288699 0.0 
0.253995 0.00910093 0.0 
0 0 0.0 
0.00236534 -0.000333315 0.0 
1.01254 -0.00251301 0.0 
1.06073 0.219755 0.0 
1.00048 0.00518334 0.0 
1.01865 -0.301721 0.0 
0.313483 -0.0134959 0.0 
0.941176 -0.100724 0.0 
0.837709 -0.0223344 0.0 
0.358623 -0.00402411 0.0 
0.152373 0.0154492 0.0 
1.01218 -0.294461 0.0 
0.75303 0.220221 0.0 
0.324663 0.168203 0.0 
0.245525 -0.292179 0.0 
0.226601 -0.00301886 0.0 
-7.4447e-65 2.95962e-66 0.0 
0.0735262 -0.000146599 0.0 
1.00478 0.00242845 0.0 
1.008 0.000752956 0.0 
0.999514 -0.000225514 0.0 
1.03482 -0.0534953 0.0 
1.01289 -0.0137044 0.0 
0.31964 0.0763166 0.0 
0.293586 0.121239 0.0 
0 0 0.0 
0.19344 0.00874908 0.0 
6.7906e-06 5.74399e-09 0.0 
0.705247 -0.0866972 0.0 
1.0082 0.00109869 0.0 
1.00934 0.256132 0.0 
0.726371 -0.065392 0.0 
0.853895 0.21603 0.0 
-1.28182e-14 -9.74797e-16 0.0 
1.00687 0.00380801 0.0 
1.05617 0.0955659 0.0 
0.985828 0.00277618 0.0 
0.00127521 -0.000131728 0.0 
0.000186054 1.96798e-05 0.0 
0.608277 -0.463102 0.0 
-7.96954e-46 -4.24202e-47 0.0 
1.00961 0.00059705 0.0 
0.727552 0.191902 0.0 
0.00843655 0.000739162 0.0 
0.678763 0.199969 0.0 
0.994744 0.000840686 0.0 
0.998953 -0.00317526 0.0 
0.162247 -0.00996077 0.0 
2.75832e-05 4.0313e-06 0.0 
0.0953339 0.0155539 0.0 
1.00158 0.0131954 0.0 
0.0202652 -0.00332235 0.0 
1.00827 -0.00116173 0.0 
0 0 0.0 
1.0365 -0.2729 0.0 
-3.86912e-71 -9.20472e-72 0.0 
0.0049841 -0.000468354 0.0 
0 0 0.0 
1.00087 0.00178967 0.0 
0.0362222 -0.0153212 0.0 
0.0200179 0.000759506 0.0 
0.933688 0.0906838 0.0 
0.445879 -0.0101163 0.0 
1.00326 -0.00246205 0.0 
1.00918 -0.00379991 0.0 
1.00816 0.000107824 0.0 
1.0062 -0.000305382 0.0 
1.04575 0.0195045 0.0 
1.00794 -0.00141663 0.0 
0.0283488 0.00698524 0.0 
0.373188 -0.020402 0.0 
1.00796 -0.00374628 0.0 
0.584935 -0.0715581 0.0 
1.01985 0.142706 0.0 
1.00233 0.00245291 0.0 
0.0540954 0.032765 0.0 
0.0770554 -0.0355544 0.0 
0.0772246 0.0631657 0.0 
0 0 0.0 
0.0929129 0.00146854 0.0 
1.06387 0.222771 0.0 
0.279132 0.0241496 0.0 
1.07132 -0.0356924 0.0 
0 0 0.0 
0.788101 0.149282 0.0 
0.0913274 -0.0103485 0.0 
0.998796 -0.000269962 0.0 
1.0015 0 0.0 
1.09298 -0.100157 0.0 
0.942119 -0.360114 0.0 
1.0018 -0.0012937 0.0 
-3.77874e-41 4.08716e-42 0.0 
1.00802 -0.00386888 0.0 
0.0486108 -0.00341324 0.0 
0 0 0.0 
0 0 0.0 
0.363768 0.00510715 0.0 
0.0227269 0.00445219 0.0 
1.00819 0 0.0 
1.00836 -0.00395973 0.0 
0 0 0.0 
0.0873115 -0.00917574 0.0 
0.651442 0.277217 0.0 
1.00749 -0.000711428 0.0 
0.100124 -0.0149434 0.0 
0.920284 -0.304754 0.0 
1.00003 0.000516832 0.0 
0.589615 0.228264 0.0 
1.23803e-06 1.29495e-06 0.0 
0.210149 6.06308e-05 0.0 
0.95201 0.284575 0.0 
0.832566 -0.191981 0.0 
1.3413e-122 -1.39791e-123 0.0 
0.818893 -0.244369 0.0 
0.999581 -0.000141297 0.0 
0.161429 0.168861 0.0 
0 0 0.0 
0 0 0.0 
0.998941 0.000870713 0.0 
0.127466 0.00018583 0.0 
0.0332131 -0.0150034 0.0 
1.01688 -0.111117 0.0 
0.787792 0.0268015 0.0 
0.801009 -0.351571 0.0 
1.00535 0.000828907 0.0 
0.83948 0.0155116 0.0 
0 0 0.0 
0.0132614 0.000211406 0.0 
0 0 0.0 
0.398558 -0.0113931 0.0 
1.00845 0.00258207 0.0 
1.01186 -0.00304738 0.0 
0.646043 -0.00835472 0.0 
1.00081 -0.00108892 0.0 
1.00359 0.000580554 0.0 
0.755835 0.062862 0.0 
1.00648 0.152702 0.0 
1.00741 -0.00590926 0.0 
1.00169 0 0.0 
0.743264 -0.429992 0.0 
1.00397 0.000378476 0.0 
0.242061 -0.00785719 0.0 
0.80605 0.198183 0.0 
0 0 0.0 
0.977489 0.293997 0.0 
0.173582 -0.00649078 0.0 
1.00781 0.000429579 0.0 
0 0 0.0 