<VTKFile type="UnstructuredGrid" version="0.1" byte_order="LittleEndian">
  <UnstructuredGrid>
    <Piece NumberOfPoints="12729" NumberOfCells="25297">
      <Points>
        <DataArray type = "Float64" NumberOfComponents="3" format="ascii">
0 0 0.0 
14 0 0.0 
14 8 0.0 
0 8 0.0 
4.16782 4.09801 0.0 
4.01348 3.99897 0.0 
3.41272 0.490598 0.0 
4.08229 3.94584 0.0 
4.09208 3.95602 0.0 
4.27592 4.05022 0.0 
4.04076 4.01398 0.0 
4.89501 4.01976 0.0 
3.97172 3.99094 0.0 
12.4261 6.96803 0.0 
12.5949 1.78564 0.0 
4.01396 4.08707 0.0 
4.76357 4.04118 0.0 
0.559103 6.5697 0.0 
4.83875 3.99059 0.0 
4.37001 3.83503 0.0 
4.08492 3.93693 0.0 
9.79735 4.60052 0.0 
4.97333 3.98906 0.0 
4.97365 4.02617 0.0 
4.14412 4.06545 0.0 
4.58515 4.03783 0.0 
4.0576 3.97622 0.0 
4.0151 4.07556 0.0 
4.36723 4.05555 0.0 
4.59503 3.97912 0.0 
4.82051 4.03026 0.0 
8.28818 5.78715 0.0 
4.15574 3.96573 0.0 
4.09533 4.03459 0.0 
4.00922 3.99881 0.0 
4.09917 3.9306 0.0 
4.30589 3.92121 0.0 
4.01927 3.99345 0.0 
4.02807 4.0484 0.0 
4.11094 4.03801 0.0 
4.26782 3.96781 0.0 
4.02884 4.00253 0.0 
4.37665 3.94429 0.0 
3.98196 3.98783 0.0 
4.99445 4.00167 0.0 
4.36023 4.05917 0.0 
4.01706 3.99618 0.0 
4.27487 4.14459 0.0 
11.594 4.9373 0.0 
4.00684 3.98636 0.0 
4.19855 4.04961 0.0 
4.86785 3.99182 0.0 
3.99833 4.00152 0.0 
12.2626 4.73908 0.0 
5.13784 4.02471 0.0 
3.99834 4.00086 0.0 
10.0708 7.04667 0.0 
0.707621 6.30756 0.0 
4.01647 3.99236 0.0 
4.00942 4.01407 0.0 
4.03396 4.05254 0.0 
4.40014 4.06878 0.0 
4.90313 3.99325 0.0 
4.60126 3.98009 0.0 
10.8383 3.45105 0.0 
4.04625 3.97517 0.0 
4.01644 4.04405 0.0 
5.0955 3.97362 0.0 
4.04649 4.19671 0.0 
5.00785 4.00312 0.0 
10.8833 7.73481 0.0 
14 6.11123 0.0 
4.05473 4.02615 0.0 
3.96293 3.99513 0.0 
4.04956 3.95606 0.0 
4.0225 4.01997 0.0 
5.01138 4.01337 0.0 
4.85136 4.02642 0.0 
3.99922 3.99464 0.0 
5.03684 4.01469 0.0 
4.14117 3.95564 0.0 
4.62517 3.97997 0.0 
4.16113 4.06214 0.0 
14 5.21618 0.0 
5.02505 4.01161 0.0 
4.07606 4.03588 0.0 
4.80013 4.01216 0.0 
4.15937 4.1192 0.0 
4.36206 4.07133 0.0 
5.00749 4.02107 0.0 
5.00991 4.10716 0.0 
4.63629 3.97174 0.0 
4.22917 3.98359 0.0 
4.24422 7.49665 0.0 
4.27281 4.02121 0.0 
4.35343 3.94951 0.0 
4.87929 4.02062 0.0 
3.05349 4.57182 0.0 
4.05426 3.97127 0.0 
4.85949 3.99273 0.0 
4.11451 3.96967 0.0 
3.75647 4.22531 0.0 
4.08373 4.05666 0.0 
5.00129 3.99352 0.0 
4.94777 3.99612 0.0 
4.27852 0 0.0 
5.04845 4.04311 0.0 
4.75566 4.0218 0.0 
4.10819 3.96286 0.0 
0 7.54144 0.0 
4.13434 4.07811 0.0 
4.00737 4.09546 0.0 
4.03921 4.05963 0.0 
8.22355 2.46345 0.0 
4.81267 3.98988 0.0 
4.35017 3.94589 0.0 
5.51345 3.96996 0.0 
4.00245 3.99332 0.0 
8.74191 0.517135 0.0 
4.16261 3.96556 0.0 
4.1741 4.07586 0.0 
4.29717 4.06299 0.0 
4.26553 3.96741 0.0 
3.75062 1.29589 0.0 
5.00546 4.00308 0.0 
4.2755 4.03498 0.0 
4.16712 4.07049 0.0 
3.91267 2.38613 0.0 
4.02873 4.0411 0.0 
4.88146 4.04087 0.0 
4.23671 3.96696 0.0 
4.49136 4.08498 0.0 
12.1985 2.08023 0.0 
4.12124 3.98374 0.0 
4.44615 4.09328 0.0 
3.802 4.1648 0.0 
4.16362 3.95615 0.0 
3.88944 3.91156 0.0 
4.99458 4.03862 0.0 
2.74765 3.98955 0.0 
4.02244 4.02798 0.0 
5.05268 4.00394 0.0 
4.12635 4.07409 0.0 
0 1.4212 0.0 
4.1234 4.03587 0.0 
4.95339 4.01015 0.0 
11.8191 3.39518 0.0 
12.354 4.9571 0.0 
4.92384 3.99433 0.0 
5.01331 3.98969 0.0 
4.98329 4.00491 0.0 
4.71899 4.53622 0.0 
5.05415 4.0144 0.0 
11.3207 6.86561 0.0 
4.12613 3.92733 0.0 
4.03934 3.97617 0.0 
4.54136 4.06071 0.0 
4.19206 3.91938 0.0 
4.28346 4.0804 0.0 
4.88007 4.02128 0.0 
4.09641 3.95124 0.0 
4.07513 3.96893 0.0 
4.63857 3.9813 0.0 
3.96293 4.03138 0.0 
4.16991 4.04935 0.0 
4.10349 3.92287 0.0 
4.23532 3.95103 0.0 
4.08204 4.06709 0.0 
3.99252 4.00665 0.0 
4.17686 4.06982 0.0 
4.98092 4.00506 0.0 
4.15489 4.05934 0.0 
4.34186 4.12909 0.0 
4.12591 3.96843 0.0 
4.82967 3.9906 0.0 
1.05847 0.743665 0.0 
3.99665 4.0541 0.0 
5.06886 4.12388 0.0 
4.19057 4.05281 0.0 
4.10081 3.94382 0.0 
4.05695 3.98888 0.0 
5.63098 4.57931 0.0 
4.51617 4.06366 0.0 
8.50823 6.62797 0.0 
4.90662 4.00086 0.0 
5.00368 4.02219 0.0 
4.07006 3.97498 0.0 
3.9771 4.03148 0.0 
3.98648 4.05975 0.0 
4.01127 4.04737 0.0 
4.15753 4.10167 0.0 
9.35325 2.80525 0.0 
4.18309 4.12442 0.0 
3.96476 4.03852 0.0 
3.96822 4.02719 0.0 
3.97233 4.04194 0.0 
5.00051 4.00209 0.0 
5.09271 4.07101 0.0 
4.21059 3.92477 0.0 
4.05431 3.97496 0.0 
3.92251 4.00785 0.0 
4.8675 4.02402 0.0 
12.4842 4.22703 0.0 
2.17027 3.47231 0.0 
4.15142 3.97478 0.0 
4.67809 4.04698 0.0 
4.08875 3.9074 0.0 
4.14557 4.03412 0.0 
4.02269 3.99899 0.0 
3.93351 4.04561 0.0 
0 5.31463 0.0 
4.00756 4.02287 0.0 
4.00612 4.04547 0.0 
5.0401 4.02083 0.0 
4.98371 4.01321 0.0 
4.90219 3.96437 0.0 
4.90946 3.98223 0.0 
4.82018 4.03088 0.0 
4.32301 4.07002 0.0 
4.86219 3.99216 0.0 
3.74084 7.4497 0.0 
4.38562 3.97111 0.0 
3.97937 0.292323 0.0 
6.25214 4.08628 0.0 
9.70989 7.75915 0.0 
10.8425 1.88491 0.0 
4.02341 4.03456 0.0 
4.12209 3.94586 0.0 
4.52724 7.41561 0.0 
5.05919 4.01855 0.0 
2.15923 7.15628 0.0 
4.22906 3.92121 0.0 
3.9513 3.83785 0.0 
4.60701 3.95862 0.0 
4.0064 4.00089 0.0 
3.30336 6.27526 0.0 
4.45434 5.42409 0.0 
4.13732 3.96487 0.0 
4.0888 3.96815 0.0 
1.24078 0.550265 0.0 
9.10545 7.45594 0.0 
2.38032 0.204862 0.0 
5.61353 8 0.0 
4.11851 4.05833 0.0 
4.25854 3.983 0.0 
4.01517 4.03055 0.0 
4.15917 4.06546 0.0 
3.99882 3.99972 0.0 
7.15285 6.80318 0.0 
7.50681 5.8474 0.0 
0.612828 0.378423 0.0 
4.03203 3.93215 0.0 
3.99908 3.98836 0.0 
8.76112 4.31939 0.0 
4.61831 4.05349 0.0 
3.99526 4.00176 0.0 
5.82879 4.74509 0.0 
4.40463 3.97138 0.0 
4.21507 3.9482 0.0 
4.08676 3.97133 0.0 
4.97222 4.02124 0.0 
4.73288 4.02429 0.0 
4.19735 4.0441 0.0 
4.0175 4.04099 0.0 
12.3267 4.10437 0.0 
4.72596 4.04328 0.0 
4.08678 3.96894 0.0 
11.9473 3.59927 0.0 
5.1327 4.04445 0.0 
5.02928 3.97464 0.0 
4.08293 3.9416 0.0 
9.38165 5.70141 0.0 
4.68733 4.04705 0.0 
4.06911 3.9687 0.0 
6.4779 4.29116 0.0 
4.08857 4.1281 0.0 
3.9901 3.98452 0.0 
1.65353 3.57524 0.0 
4.47069 4.06496 0.0 
4.92467 3.9952 0.0 
4.76005 4.05448 0.0 
11.0724 2.07428 0.0 
5.34717 2.84277 0.0 
4.1797 4.07872 0.0 
4.22236 4.07702 0.0 
13.776 6.53269 0.0 
4.31124 4.08205 0.0 
3.0025 3.79109 0.0 
4.00883 3.98758 0.0 
3.59386 3.60045 0.0 
13.2253 0 0.0 
10.1351 3.82958 0.0 
4.58056 4.05811 0.0 
5.00875 4.00222 0.0 
5.06347 3.99507 0.0 
3.96215 4.17218 0.0 
4.39922 3.97071 0.0 
11.2037 6.16116 0.0 
5.08198 4.04957 0.0 
5.02947 4.00625 0.0 
5.02315 4.00602 0.0 
5.02122 3.98128 0.0 
4.7194 4.1123 0.0 
4.0028 4.00914 0.0 
4.71395 3.96274 0.0 
13.4125 7.46568 0.0 
4.08711 3.98632 0.0 
3.99883 4.01382 0.0 
4.10663 4.0301 0.0 
4.10761 4.0532 0.0 
13.7615 3.13556 0.0 
4.12438 3.96136 0.0 
4.07977 4.03854 0.0 
5.03482 3.97988 0.0 
4.73098 4.053 0.0 
4.13386 4.04638 0.0 
4.84142 3.97764 0.0 
4.08433 4.05007 0.0 
4.00554 4.00386 0.0 
3.79996 4.03799 0.0 
3.99752 4.02893 0.0 
4.01884 3.99521 0.0 
4.72089 3.98713 0.0 
3.98628 3.99582 0.0 
4.00324 3.99345 0.0 
4.98756 3.96669 0.0 
4.01204 4.00974 0.0 
12.0282 5.62751 0.0 
4.66787 3.98199 0.0 
4.96094 4.00899 0.0 
4.97445 3.98438 0.0 
8.1554 7.24604 0.0 
4.53268 3.97697 0.0 
4.00774 3.99043 0.0 
3.98163 4.03116 0.0 
1.58634 4.11387 0.0 
4.96844 3.9332 0.0 
4.03692 3.96558 0.0 
4.07644 3.95366 0.0 
4.17688 3.91279 0.0 
9.52987 5.94501 0.0 
5.10311 4.0306 0.0 
4.28205 4.09231 0.0 
5.07095 2.11145 0.0 
3.93422 3.94134 0.0 
7.00812 2.71192 0.0 
3.99383 4.15421 0.0 
3.98027 4.05285 0.0 
4.2685 4.09102 0.0 
4.27583 3.9672 0.0 
4.59236 4.08357 0.0 
3.98817 4.01223 0.0 
4.28256 4.07057 0.0 
4.04077 3.99338 0.0 
10.3997 4.0249 0.0 
4.14833 3.96841 0.0 
5.00317 4.00256 0.0 
4.13137 4.09569 0.0 
4.06478 3.96921 0.0 
4.07437 3.49323 0.0 
4.2678 4.0699 0.0 
13.2653 2.91651 0.0 
3.72096 0.165683 0.0 
4.06058 4.04046 0.0 
4.03561 4.026 0.0 
5.18793 4.05304 0.0 
4.44158 4.06682 0.0 
3.99697 4.00162 0.0 
4.02863 3.97467 0.0 
3.98111 4.00805 0.0 
4.5888 3.97928 0.0 
3.99352 3.97666 0.0 
8.90662 4.1841 0.0 
13.391 6.29277 0.0 
4.67002 3.84867 0.0 
4.72087 4.06014 0.0 
3.98468 3.9804 0.0 
4.27492 4.05293 0.0 
4.10308 3.95678 0.0 
4.00161 4.0037 0.0 
4.33863 4.07437 0.0 
3.99631 4.00733 0.0 
3.82872 4.23118 0.0 
4.08438 4.04648 0.0 
4.04356 3.9686 0.0 
3.98206 3.97395 0.0 
12.9901 3.16776 0.0 
4.45264 3.97321 0.0 
4.43566 3.97184 0.0 
4.55527 3.97884 0.0 
4.02217 3.98852 0.0 
3.99748 4.01455 0.0 
4.00375 4.03912 0.0 
10.3943 4.20523 0.0 
3.99121 4.03339 0.0 
3.99417 4.04189 0.0 
4.76522 4.03695 0.0 
4.86806 4.03265 0.0 
11.4017 6.00251 0.0 
4.42413 4.06724 0.0 
3.99997 3.99241 0.0 
4.33902 3.9194 0.0 
4.31733 4.12295 0.0 
4.25291 4.06772 0.0 
4.22704 4.0666 0.0 
3.98918 4.03714 0.0 
4.11631 4.01871 0.0 
4.01059 4.0357 0.0 
4.97369 4.90843 0.0 
4.59438 3.97831 0.0 
4.09975 3.95651 0.0 
4.13306 4.06692 0.0 
4.00056 4.04248 0.0 
1.05155 0.371395 0.0 
5.00543 4.01555 0.0 
3.9896 4.00463 0.0 
5.18814 3.88706 0.0 
3.98613 3.98439 0.0 
9.83263 5.51886 0.0 
4.01287 4.13694 0.0 
4.00273 4.04763 0.0 
4.02428 4.00868 0.0 
2.46283 1.41429 0.0 
4.06931 3.99449 0.0 
4.28217 4.086 0.0 
2.85705 1.68624 0.0 
4.4515 3.95323 0.0 
4.64368 3.98281 0.0 
4.5552 3.97714 0.0 
3.98643 3.99986 0.0 
4.17289 4.07199 0.0 
4.09269 4.02601 0.0 
3.99581 3.98523 0.0 
4.00943 4.02943 0.0 
0.970073 0 0.0 
3.98481 4.00073 0.0 
3.97761 4.0047 0.0 
4.45517 4.06657 0.0 
4.1557 4.02236 0.0 
3.99804 4.00952 0.0 
4.241 3.968 0.0 
4.11077 4.06077 0.0 
3.98558 4.00796 0.0 
5.04298 4.00764 0.0 
4.96873 3.99815 0.0 
3.41326 0.8185 0.0 
4.07745 3.92655 0.0 
4.11351 4.49336 0.0 
4.27982 4.05867 0.0 
14 6.70716 0.0 
4.06498 3.96487 0.0 
1.03306 6.23145 0.0 
4.00938 3.99278 0.0 
4.11333 3.95725 0.0 
4.00491 4.00281 0.0 
4.00595 3.99585 0.0 
4.02987 4.07932 0.0 
4.07076 4.03121 0.0 
4.06821 3.94862 0.0 
2.06405 2.66348 0.0 
11.4878 4.24483 0.0 
3.99705 4.04765 0.0 
4.96232 3.98271 0.0 
5.00166 3.98677 0.0 
4.95558 4.10258 0.0 
5.0004 3.98388 0.0 
9.05545 0 0.0 
8.2761 4.17691 0.0 
4.13787 3.93543 0.0 
4.9972 4.01381 0.0 
4.10918 3.95694 0.0 
4.02241 4.04141 0.0 
3.9487 4.03134 0.0 
[...]
<PointData>
  <DataArray type = "Float64" Name="Vitesse" NumberOfComponents="3" format="ascii">
1 0 0.0 
1.0061 0 0.0 
1.00457 0 0.0 
1 0 0.0 
1.02933 0.173014 0.0 
0 0 0.0 
1.00431 -0.001219 0.0 
0.958204 -0.167328 0.0 
0.623219 -0.0822934 0.0 
0 0 0.0 
0 0 0.0 
0.00277212 -0.000555613 0.0 
0.634653 -0.136566 0.0 
1.00596 -0.00057776 0.0 
1.00745 0.000784527 0.0 
0.894841 0.245323 0.0 
0.0197301 -0.00245629 0.0 
1.00009 0.000618534 0.0 
0.0075109 0.000168695 0.0 
1.08433 -0.035551 0.0 
1.05179 -0.186194 0.0 
1.00898 -0.00133377 0.0 
0.0837737 0.00477722 0.0 
0.0661026 -0.00990278 0.0 
0.406922 0.0704138 0.0 
-5.47943e-234 -2.22889e-235 0.0 
-1.94473e-109 1.10097e-110 0.0 
0.879532 0.271138 0.0 
0 0 0.0 
0.00777016 0.000445743 0.0 
0.00157651 -6.29583e-05 0.0 
1.0095 -0.00178462 0.0 
0.0685683 -0.00123672 0.0 
0 0 0.0 
0 0 0.0 
1.0683 -0.167457 0.0 
0.853745 -0.0224735 0.0 
0 0 0.0 
0.835683 0.358918 0.0 
0 0 0.0 
0.00920808 0.000343728 0.0 
0 0 0.0 
0.434021 0.00437764 0.0 
0.590195 -0.228688 0.0 
2.93893e-05 -8.05094e-06 0.0 
0 0 0.0 
0 0 0.0 
1.1261 0.107196 0.0 
1.00831 -0.00177477 0.0 
0.370943 -0.256282 0.0 
-1.66001e-134 -5.03208e-136 0.0 
0.00834591 0.000299497 0.0 
0.0448714 -0.0690894 0.0 
1.00863 -0.0022931 0.0 
0.161389 -0.00991111 0.0 
0.0488724 -0.0930828 0.0 
1.00723 -0.000566897 0.0 
1.00011 0.000891693 0.0 
0 0 0.0 
0 0 0.0 
0.867673 0.348993 0.0 
0.0137399 -0.000748951 0.0 
0.0118063 0.000544398 0.0 
-1.25516e-21 -1.57586e-22 0.0 
1.01128 0.000891853 0.0 
0.116804 -0.0222085 0.0 
0.78884 0.365945 0.0 
0.282557 0.0241227 0.0 
0.997355 0.148819 0.0 
0.0248275 -0.00483929 0.0 
1.00644 -0.000153123 0.0 
1.00568 -0.00155229 0.0 
0 0 0.0 
0.670639 -0.0827824 0.0 
0.933963 -0.234269 0.0 
-4.22916e-156 -1.52405e-156 0.0 
0.0377731 -0.0149466 0.0 
0.00328586 -0.000475176 0.0 
0.192211 -0.294041 0.0 
0.0616564 -0.00931995 0.0 
0.410932 -0.0271439 0.0 
0.0132933 0.000776298 0.0 
0.165716 0.0225418 0.0 
1.00568 -0.00309938 0.0 
0.0471577 -0.00899267 0.0 
1.37147e-101 2.20939e-102 0.0 
0 0 0.0 
1.09619 0.187462 0.0 
0.0550036 -0.000956843 0.0 
0.0595528 -0.0181965 0.0 
0.736893 -0.0497365 0.0 
0.108564 0.00472851 0.0 
0 0 0.0 
1.00773 0.00123875 0.0 
-6.98697e-223 -2.84212e-224 0.0 
0.347593 0.00396212 0.0 
-9.47769e-27 1.20371e-27 0.0 
0.991224 0.0110772 0.0 
0.259528 -0.0477895 0.0 
6.62728e-07 4.75611e-08 0.0 
2.60979e-07 -6.92005e-09 0.0 
0.953943 0.0442369 0.0 
0.60973 0.162008 0.0 
0.0643241 0.0140061 0.0 
0.00447043 8.86912e-06 0.0 
1.00631 0 0.0 
0.196786 -0.0262159 0.0 
-1.72695e-136 1.99518e-137 0.0 
0.275119 -0.023852 0.0 
1 0 0.0 
0.85105 0.168236 0.0 
0.897475 0.222906 0.0 
0.910949 0.337489 0.0 
1.00965 0.000962319 0.0 
0.0035533 0.00049819 0.0 
0.412889 0.00288171 0.0 
0.46294 0.0131193 0.0 
0.0851181 -0.108721 0.0 
1.00825 0.000191628 0.0 
0.0674737 -0.00194831 0.0 
0.581258 0.0830429 0.0 
0 0 0.0 
0.0165224 2.71622e-06 0.0 
1.00576 -0.00359303 0.0 
0.0198705 -0.0064626 0.0 
-6.78207e-232 -2.75877e-233 0.0 
0.442932 0.064085 0.0 
1.00798 -0.00984663 0.0 
0.731437 0.331646 0.0 
0.0938691 -0.0107797 0.0 
0.0168233 0.000195036 0.0 
0.32735 -0.0100353 0.0 
1.00789 0.00104234 0.0 
0 0 0.0 
0.477461 -0.00496412 0.0 
0.934983 0.0484718 0.0 
0.339319 -0.0156648 0.0 
0.899664 -0.0787251 0.0 
0.145106 -0.0208277 0.0 
0.991882 0.000632115 0.0 
0.334102 0.174729 0.0 
0.0816527 0.00307921 0.0 
0.801708 0.164528 0.0 
1 0 0.0 
1.64646e-305 1.10904e-306 0.0 
0.00233448 -0.000270705 0.0 
1.00985 0.00153871 0.0 
1.0079 -0.00202226 0.0 
0.0111489 0.000673971 0.0 
0.105579 0.0187922 0.0 
0.00201174 -0.00038009 0.0 
1.05147 0.00218716 0.0 
0.0769708 -0.0064344 0.0 
1.0067 -0.000650981 0.0 
1.0526 -0.132268 0.0 
0.149316 -0.0381898 0.0 
0.0053 -7.50126e-05 0.0 
1.01877 -0.0781519 0.0 
0.342598 0.0194543 0.0 
0.000133784 -2.01661e-05 0.0 
0.754024 -0.102232 0.0 
0.188062 -0.0275901 0.0 
0.0054834 0.000534535 0.0 
0.70672 0.0960048 0.0 
0 0 0.0 
1.08659 -0.165128 0.0 
0.372208 -0.0062355 0.0 
0.900802 0.251969 0.0 
0.282991 0.0458311 0.0 
0.368806 0.0476191 0.0 
0.00145971 -0.000221688 0.0 
0.0888803 0.00586112 0.0 
1.06199 0.0636409 0.0 
0.0257791 -0.00266416 0.0 
0.00347174 0.000350824 0.0 
1.00034 -0.000526002 0.0 
0.777558 0.263631 0.0 
0.857704 -0.0506157 0.0 
0 0 0.0 
0.915682 -0.131149 0.0 
0 0 0.0 
1.0172 -0.0142356 0.0 
0.0173793 -0.00163253 0.0 
1.00857 -0.00105253 0.0 
-4.75269e-55 -2.50557e-56 0.0 
0.0628843 -0.0176118 0.0 
5.93795e-13 -3.89705e-14 0.0 
0.661444 0.155079 0.0 
0.788047 0.218324 0.0 
0.788564 0.34148 0.0 
1.06535 0.189444 0.0 
1.00981 0.0009908 0.0 
1.10704 0.16872 0.0 
0.724231 0.121437 0.0 
0.673349 0.0993716 0.0 
0.72172 0.15611 0.0 
0.00923668 -0.00688186 0.0 
0.445071 -0.0380641 0.0 
0.933131 -0.0569726 0.0 
1.88548e-08 -2.213e-09 0.0 
0.792429 -0.0105627 0.0 
0.00337075 -0.000414737 0.0 
0.952657 -0.00455605 0.0 
0.996734 -0.00185786 0.0 
-9.89199e-172 -7.07644e-173 0.0 
-2.26639e-17 1.03175e-18 0.0 
1.0773 -0.174417 0.0 
5.06591e-299 3.41195e-300 0.0 
0 0 0.0 
0.798904 0.0687276 0.0 
1 0 0.0 
0.473679 0.331411 0.0 
0.761391 0.327678 0.0 
0.0773893 -0.0139937 0.0 
0.0230268 -0.00474939 0.0 
0.291142 0.012828 0.0 
0.117765 0.00569165 0.0 
0.00367522 -0.000465294 0.0 
0.0293921 -0.000408867 0.0 
0.00341371 0.000244969 0.0 
1.00635 0.00157462 0.0 
0.00259938 0.00024918 0.0 
1.0057 -0.00070091 0.0 
0.738985 -0.0108847 0.0 
1.00714 -0.000150355 0.0 
1.00843 0.000766952 0.0 
0.610425 0.305433 0.0 
0.774958 -0.0838858 0.0 
1.00851 0.00122701 0.0 
0.0870475 -0.00939661 0.0 
1.00202 0.00172199 0.0 
0.946524 -0.0529583 0.0 
0.960849 -0.111006 0.0 
0.253244 0.00910118 0.0 
-2.03326e-59 -2.63188e-59 0.0 
1.00544 0.00606372 0.0 
1.01936 0.0101092 0.0 
0.120716 -0.003277 0.0 
0.142692 -0.0149942 0.0 
1.00049 -0.000467332 0.0 
1.00761 -0.000372718 0.0 
1.00202 -0.000377455 0.0 
1.00948 0 0.0 
0.319974 0.0604062 0.0 
-1.11382e-261 -1.0867e-262 0.0 
0.603366 0.336579 0.0 
0.305979 0.0421358 0.0 
0.048874 -0.117157 0.0 
1.00975 -0.00105641 0.0 
1.01023 -0.00223274 0.0 
1.00011 -0.000157491 0.0 
1.00997 -0.259437 0.0 
0.479444 -0.44644 0.0 
1.00927 -0.00284608 0.0 
5.38664e-06 1.21431e-07 0.0 
0.164359 -0.0985453 0.0 
1.01629 -0.0102557 0.0 
0.00971415 0.000829722 0.0 
0.462795 -0.0137512 0.0 
9.49792e-08 -1.15701e-08 0.0 
0.0442703 -0.00687652 0.0 
-3.04691e-132 3.52016e-133 0.0 
0 0 0.0 
0.767221 0.372126 0.0 
0.87617 -0.00630903 0.0 
0.00536797 -0.000765956 0.0 
0.116287 -0.0143 0.0 
1.01192 0.000137258 0.0 
0.255301 -0.022723 0.0 
0.24292 0.0263688 0.0 
1.0158 -0.180975 0.0 
1.00888 -0.00137819 0.0 
0.000459746 -2.08678e-05 0.0 
0.249102 -0.0386253 0.0 
1.00961 -0.00771059 0.0 
1.03016 0.213374 0.0 
0.594856 -0.347264 0.0 
0.998269 -0.000760257 0.0 
0.000492359 3.52562e-06 0.0 
0.00359149 0.000209256 0.0 
0.113297 -0.0113362 0.0 
1.00849 0.000898505 0.0 
1.01793 0.000629425 0.0 
0.637368 0.0894508 0.0 
0.40893 0.0387255 0.0 
1.00546 -0.0010311 0.0 
0.339293 0.0126955 0.0 
0.987429 -0.0037324 0.0 
0.145023 -0.0822198 0.0 
0.981333 -0.0254769 0.0 
1.00635 0 0.0 
0.936244 0.000218217 0.0 
0.00902152 -0.000846156 0.0 
0.0279492 -0.00240018 0.0 
0.121226 0.0111473 0.0 
0.941486 0.125028 0.0 
0.0163085 0.000295053 0.0 
1.00756 -0.00102935 0.0 
0.259909 -0.0287479 0.0 
0.0531128 -0.00204061 0.0 
0.0456158 -0.00315804 0.0 
0.180467 0.0236811 0.0 
0.735871 -0.034745 0.0 
0.0305086 0.043113 0.0 
0.240295 0.00972333 0.0 
1.0051 -0.000309764 0.0 
0 0 0.0 
0.311228 0.265259 0.0 
0 0 0.0 
0.189473 0.0402068 0.0 
1.00718 0.0016968 0.0 
0.271071 -0.0199247 0.0 
2.65405e-93 4.27558e-94 0.0 
0.199485 0.0239489 0.0 
0.0803053 -0.0081019 0.0 
0 0 0.0 
0.133455 0.0061 0.0 
0.315833 0.0748035 0.0 
-1.31664e-39 -1.70438e-39 0.0 
0.908632 0.0110228 0.0 
0.607011 0.315283 0.0 
0 0 0.0 
7.81332e-05 1.12082e-05 0.0 
0.460331 -0.192715 0.0 
-9.71024e-32 7.87923e-32 0.0 
0.305436 0.0204743 0.0 
0 0 0.0 
1.00782 -0.00141198 0.0 
0.0127496 0.000520458 0.0 
0.00240937 -0.000452932 0.0 
0.129144 0.00786349 0.0 
1.0084 -0.000607782 0.0 
0.000341721 1.40416e-05 0.0 
0 0 0.0 
0.646401 0.180725 0.0 
0.998268 0.000818649 0.0 
0.618416 0.0274672 0.0 
0.785783 -0.231322 0.0 
0.808466 -0.141876 0.0 
1.07384 -0.0966527 0.0 
1.0086 -0.00122283 0.0 
0.156525 -0.0161404 0.0 
0.643326 0.0456383 0.0 
1.01267 -0.00285614 0.0 
0.853163 -0.117791 0.0 
1.01062 0.00179538 0.0 
0.943474 0.155363 0.0 
0.759681 0.197803 0.0 
0.645745 0.0505946 0.0 
0.0216326 0.000402274 0.0 
0.337138 -0.0177985 0.0 
0.433214 0.110569 0.0 
0.076813 0.00328009 0.0 
0 0 0.0 
0.787252 -0.000650931 0.0 
-1.27019e-32 2.75427e-34 0.0 
0.0148598 -0.00719876 0.0 
1.05736 0.216824 0.0 
0.257792 -0.046343 0.0 
1.01745 -0.0439228 0.0 
0.0790408 0.00390642 0.0 
1.008 0.00142949 0.0 
1.00505 -0.000396819 0.0 
0.159244 0.0523534 0.0 
-8.16696e-140 -2.9431e-140 0.0 
0.343649 -0.0256275 0.0 
0.00574532 2.0688e-05 0.0 
0.0968379 -0.0897872 0.0 
0.478897 -0.159508 0.0 
0.50372 0.00924866 0.0 
0.000215426 1.69536e-05 0.0 
0.709188 -0.378473 0.0 
0.945022 -0.00190817 0.0 
1.00598 -0.00111572 0.0 
1.05648 0.00325962 0.0 
0.136418 -0.0123786 0.0 
0.657134 -0.286522 0.0 
0 0 0.0 
0.5291 -0.0576246 0.0 
3.60104e-16 4.66143e-16 0.0 
0.129053 0.000447466 0.0 
0.185839 0.107799 0.0 
0.952562 0.0609582 0.0 
0.128624 0.0239136 0.0 
0.555054 -0.134667 0.0 
0.716113 -0.267757 0.0 
1.00718 0.00161485 0.0 
0.00698257 0.000614736 0.0 
0.0164075 0.000538956 0.0 
-9.57839e-24 -1.02942e-24 0.0 
-5.16897e-60 2.49478e-60 0.0 
0.349904 0.265591 0.0 
0.71588 0.336931 0.0 
0.954066 -0.000522558 0.0 
0.647414 0.256143 0.0 
0.711577 0.27089 0.0 
-5.45077e-16 5.35847e-17 0.0 
0.0397675 -0.00507229 0.0 
1.00766 -0.00112398 0.0 
-1.25071e-20 -1.4041e-22 0.0 
0.275598 -0.347492 0.0 
0.846222 -0.0160168 0.0 
1.0421 0.0728317 0.0 
0.0387833 0.00444059 0.0 
0.0663019 0.00376502 0.0 
0.676527 0.241401 0.0 
-1.12895e-251 -4.59228e-253 0.0 
0.708664 0.375351 0.0 
1.03258 -0.00120948 0.0 
0.0163703 0.000893478 0.0 
0.557687 -0.0641305 0.0 
0.539584 0.10027 0.0 
0.727719 0.308093 0.0 
1.00035 -0.0002659 0.0 
0.0406519 -0.0162075 0.0 
0.344767 -0.0249646 0.0 
0.914243 0.0334213 0.0 
0.608152 -0.292622 0.0 
1.00905 -0.00136232 0.0 
0.946246 0.181654 0.0 
0.762094 0.305053 0.0 
0 0 0.0 
1.00188 -0.00276188 0.0 
6.19028e-263 7.77891e-264 0.0 
0.490814 0.0315482 0.0 
1.00254 -0.00413023 0.0 
0.289758 0.00679019 0.0 
-1.96738e-15 -2.00932e-16 0.0 
0.010405 0.000660139 0.0 
0.423932 -0.124288 0.0 
0.463479 0.0648081 0.0 
0 0 0.0 
0.579548 -0.434393 0.0 
0.621071 0.370581 0.0 
1.00031 0 0.0 
0.448229 -0.101004 0.0 
0.540568 -0.0345246 0.0 
0.0118987 -0.000521694 0.0 
-3.73417e-238 -1.51896e-239 0.0 
0.19757 0.178562 0.0 
-7.18986e-20 -5.22653e-21 0.0 
0.496027 0.106344 0.0 
0.439187 0.0245192 0.0 
0.0662939 -0.00136457 0.0 
2.34975e-07 1.2086e-08 0.0 
1.00441 -0.00209198 0.0 
1.07933 -0.201572 0.0 
1.02542 0.0594832 0.0 
0 0 0.0 
1.00515 -0.00100107 0.0 
0.473521 -0.0838172 0.0 
1.00024 0.00139736 0.0 
1e-307 1e-307 0.0 
0.461006 -0.0420926 0.0 
-7.67798e-39 -9.93905e-39 0.0 
-2.50973e-286 2.73631e-286 0.0 
0.918679 0.2829 0.0 
0 0 0.0 
0.971716 -0.198275 0.0 
0.999257 -0.00322357 0.0 
0.977031 -0.00318426 0.0 
0.748708 0.277273 0.0 
0.137958 0.00726029 0.0 
0.12466 0.0175326 0.0 
0.686303 -0.0463501 0.0 
0.150386 0.0177232 0.0 
1.00801 0 0.0 
0.946033 -0.00445013 0.0 
0.935991 -0.0989305 0.0 
0.0330086 -0.0117946 0.0 
0.49169 -0.0487163 0.0 
0.768946 0.364421 0.0 
0.74701 0.0633499 0.0 
0.579367 -0.0613981 0.0 
0 0 0.0 
0.863434 0.354031 0.0 
0.493055 -0.172094 0.0 
0.81447 0.35596 0.0 
0.879367 -0.0733626 0.0 
1.00939 -0.00174015 0.0 
0.943303 -0.334621 0.0 
1.01515 -0.00133957 0.0 
0.74638 -0.0901608 0.0 
0.00262583 -2.96475e-05 0.0 
0.782285 0.135083 0.0 
0.451343 -0.00476136 0.0 
1.04972 0.10256 0.0 
0 0 0.0 
3.24091e-93 1.45809e-95 0.0 
1.01767 -0.0119213 0.0 
0.415644 -0.00502812 0.0 
0.864937 -0.00300745 0.0 
0.045808 -0.00978184 0.0 
0.407477 -0.00336227 0.0 
0.810042 0.127184 0.0 
7.83207e-08 4.81505e-09 0.0 
0.455418 -0.0477197 0.0 
0.0115285 0.00112354 0.0 
5.1983e-06 3.06107e-08 0.0 
0.119835 -0.007083 0.0 
0.962826 0.00363354 0.0 
7.42274e-07 4.27223e-08 0.0 
0.0812525 0.00510988 0.0 
-1.34476e-13 -1.53141e-14 0.0 
1.02901 0.0316704 0.0 
0.0758646 0.104672 0.0 
0.697523 -0.449003 0.0 
0.767779 0.0872898 0.0 
0.497134 -0.353265 0.0 
0.817868 0.364025 0.0 
0.952821 0.00191914 0.0 
0.0500329 0.0164188 0.0 
0.175569 -0.0171592 0.0 
0.77224 -0.29025 0.0 
1.00867 0.00123408 0.0 
0.111984 0.0361799 0.0 
1.00767 -0.000210465 0.0 
1.00132 -0.144 0.0 
0.171514 0.0127346 0.0 
0.0437204 0.0024509 0.0 
0.432312 0.0768743 0.0 
1.01071 4.68546e-05 0.0 
1.0119 -0.00162463 0.0 
-7.70901e-31 8.0903e-32 0.0 
0.590992 0.0805466 0.0 
0.0428743 -0.0166565 0.0 
0.985771 -0.0293247 0.0 
0.89057 0.00959032 0.0 
5.08279e-222 3.33896e-223 0.0 
-2.7957e-15 -3.36978e-17 0.0 
0.89221 -0.301286 0.0 
0.928541 0.000272079 0.0 
0.0334354 0.00107114 0.0 
0 0 0.0 
0.239018 -0.120939 0.0 
0.862076 0.258499 0.0 
0.189132 0.0101218 0.0 
0.0129964 0.000379718 0.0 
1.00987 0.00138651 0.0 
1.00769 -0.000613513 0.0 
0.398337 -0.148006 0.0 
0.941646 -0.0214206 0.0 
0.439348 -0.0102805 0.0 
0.966109 0.305142 0.0 
0.00414469 0.000274567 0.0 
0 0 0.0 
0.999494 0.00263571 0.0 
0.5008 0.0881029 0.0 
1.00981 -0.00184383 0.0 
0.128923 -0.00901308 0.0 
0.279785 -0.0323195 0.0 
-9.50105e-145 1.09768e-145 0.0 
0.047096 -0.0118151 0.0 
0.97789 0.00353682 0.0 
1.02111 -0.00654407 0.0 
1.00045 0.0051709 0.0 
0.000346477 1.39496e-05 0.0 
0 0 0.0 
5.48262e-07 -1.70946e-08 0.0 
0.296314 -0.103892 0.0 
0 0 0.0 
0.017212 0.00119895 0.0 
1.01221 -0.294174 0.0 
0.237884 -0.0184412 0.0 
0.323394 0.165587 0.0 
0.553462 0.0288907 0.0 
0.179459 0.00255645 0.0 
0.996507 -0.00572755 0.0 
0.999521 -0.000242094 0.0 
0.876233 -0.0124567 0.0 
2.55444e-251 7.3336e-252 0.0 
0 0 0.0 
1.00341 -0.00366729 0.0 
0.141593 -0.0153157 0.0 
1.00684 0.256711 0.0 
0.00843317 0.000860751 0.0 
0.97377 -0.0142869 0.0 
0.00682707 -0.000170595 0.0 
0.0171235 0.00115366 0.0 
1.01056 -0.00122525 0.0 
5.79832e-07 -3.87957e-08 0.0 
0.00192292 -0.00020146 0.0 
0.609294 -0.46429 0.0 
0.99997 -0.00306151 0.0 
0.727305 0.191229 0.0 
1.00627 0 0.0 
0.678184 0.199114 0.0 
1.00155 0.00238319 0.0 
0.500813 0.151953 0.0 
1.00865 -0.00123984 0.0 
0 0 0.0 
0.388157 -0.024678 0.0 
1.00892 -0.000769594 0.0 
1.03641 -0.272859 0.0 
0.0123702 -0.000700789 0.0 
7.62931e-09 5.6988e-09 0.0 
0.855533 -0.0178451 0.0 
0.593518 -0.0733361 0.0 
0.00315921 0.000385962 0.0 
0.549526 -0.0155356 0.0 
1.01307 -0.131679 0.0 
0.321371 -0.0185278 0.0 
0.284261 0.00936079 0.0 
1.35941e-146 5.1736e-147 0.0 
0.139259 0.00516406 0.0 
1.09294 -0.0961807 0.0 
1.00801 -0.0448713 0.0 
0.0433355 0.0102779 0.0 
0.00892143 -0.00287284 0.0 
0.00333178 -2.72558e-05 0.0 
5.85234e-90 6.06218e-91 0.0 
0.999968 0.0020239 0.0 
1.00001 0.00108445 0.0 
1.00988 0.00115957 0.0 
6.11458e-06 5.05886e-07 0.0 
0 0 0.0 
0.655511 0.115498 0.0 
1.01041 -0.000337312 0.0 
0.943683 -0.359657 0.0 
0.903096 -0.168836 0.0 
0.692884 -0.289455 0.0 
0 0 0.0 
1.01041 -0.00201693 0.0 
0.0484533 -0.00341315 0.0 
0 0 0.0 
0.621356 -0.0377407 0.0 
1.01249 -0.00587209 0.0 
1.00975 -0.00201813 0.0 
0.574459 0.222745 0.0 
0.650219 0.276628 0.0 
0.000914704 7.31859e-05 0.0 
0.921835 -0.303176 0.0 
1.05232 0.00111705 0.0 
1.00003 0.000515896 0.0 
0.745513 -0.428472 0.0 
0.95145 0.283705 0.0 
1.00313 -0.00289478 0.0 
0.350188 0.240339 0.0 
1.00002 0.000495384 0.0 
0.117507 -0.0214321 0.0 
0.819516 -0.244862 0.0 
0.905285 0.331935 0.0 
0.161062 0.167812 0.0 
0 0 0.0 
0.133509 -0.0766779 0.0 
0.606791 -0.0396536 0.0 
0.0330476 -0.0150215 0.0 
1.01733 -0.111273 0.0 
0.843869 -0.00889363 0.0 
0.802261 -0.352215 0.0 
0.0116399 0.00140422 0.0 
6.34644e-07 9.02201e-08 0.0 
0 0 0.0 
0.0247547 -0.0023821 0.0 
0.454542 0.160296 0.0 
1.00266 0.152628 0.0 
1.00902 0.00896319 0.0 
0.645249 -0.00938579 0.0 
0.536734 -0.062089 0.0 
1.00714 0.000183457 0.0 
1.00322 -0.00487157 0.0 
0.889612 -0.02758 0.0 
0.0250273 0.00676164 0.0 
1.00867 0.00113205 0.0 
0.0492174 -0.0052564 0.0 
0 0 0.0 
1.007 0.000455359 0.0 
1.00844 0.000225218 0.0 
1.00051 0.000589115 0.0 
1.36375e-08 -3.76395e-10 0.0 
0.682546 -0.107267 0.0 
1.01027 0.00142668 0.0 
6.88643e-14 7.3924e-14 0.0 
1.00331 -0.00790806 0.0 
0.963982 -0.191996 0.0 
0 0 0.0 
-7.07579e-84 -1.21432e-84 0.0 
0.900584 -0.24603 0.0 
0.00854865 -5.17621e-05 0.0 
0.968785 -0.341689 0.0 
0.019784 0.000650938 0.0 
0.999515 -0.00252446 0.0 
0.871964 -0.0449757 0.0 
0.00413434 -0.000300094 0.0 
0.664746 -0.00236491 0.0 
0.848935 0.331664 0.0 
0.256126 -0.0268897 0.0 
-7.01664e-25 1.12906e-25 0.0 
1.00872 0.000982937 0.0 
0.939678 0.0311961 0.0 
-1.64856e-115 2.0411e-117 0.0 
1.01055 0.270854 0.0 
0.837485 0.198605 0.0 
0.561135 -0.208174 0.0 
0.978894 0.00149715 0.0 
0.298431 -0.0259176 0.0 
0.806055 0.165326 0.0 
1.01155 -0.00214142 0.0 
0.842819 0.345659 0.0 
0.840965 0.322536 0.0 
0.846454 0.296932 0.0 
0.852223 0.0211984 0.0 
1.01155 -0.00153564 0.0 
1.00001 -0.000533487 0.0 
1.00478 -0.00253242 0.0 
0.881365 -0.0714576 0.0 
0.219612 -0.0418781 0.0 
-2.60998e-136 3.01537e-137 0.0 
0.615993 -0.116886 0.0 
1.00485 0 0.0 
0.0078631 -0.000725758 0.0 
0.563969 0.0550012 0.0 
0.002583 -0.000307205 0.0 
0.301092 0.116822 0.0 
0.670655 0.0834318 0.0 
0.157907 -0.251927 0.0 
0.244634 0.0443575 0.0 
1 0 0.0 
1.0057 -0.000283189 0.0 
-1.76816e-211 -6.73304e-213 0.0 
0.0128541 0.000183012 0.0 
0 0 0.0 
1.00687 0.000291505 0.0 
1.00805 0.000172781 0.0 
0 0 0.0 
1 -8.68851e-145 0.0 
-1.69777e-139 -5.15043e-141 0.0 
0.662271 0.00751715 0.0 
1.00912 -0.00198849 0.0 
0.840911 0.341584 0.0 
0.00787768 0.000159805 0.0 
0.999925 -0.0022648 0.0 
1.00937 0.000161536 0.0 
0.353496 0.0905456 0.0 
-7.06161e-234 -2.87248e-235 0.0 
0.735275 0.30188 0.0 
0.135476 0.00418458 0.0 
0.424914 0.0143774 0.0 
0.619824 0.0109118 0.0 
1.00055 0.00243805 0.0 
0.394419 0.00953501 0.0 
1.06287 0.13535 0.0 
0.594068 -0.0277586 0.0 
1.00778 -0.000785654 0.0 
1.0441 -0.0952253 0.0 
0.0753671 0.0155524 0.0 
0.859321 -0.402553 0.0 
0.226172 0.0238053 0.0 
1.00749 0.000192107 0.0 
0.882735 0.341551 0.0 
0.0543893 0.00435027 0.0 
0.952439 -0.0458765 0.0 
1.00448 0.0229816 0.0 
1.00663 0.00033616 0.0 
0.677906 -0.367255 0.0 
1.00492 0.00113471 0.0 
-1.35338e-89 -3.91313e-91 0.0 
0.59348 -0.143038 0.0 
0.083028 0.00723318 0.0 
0.285622 -0.00425221 0.0 
0.999545 0.00105746 0.0 
0.0972673 0.00488383 0.0 
0.841354 0.023381 0.0 
4.74083e-06 4.63267e-07 0.0 
0.275317 0.0800792 0.0 
1.00053 0.00426183 0.0 
0.339604 -0.243954 0.0 
0.833268 0.204139 0.0 
0.999952 -0.000491606 0.0 
0.772172 0.0307715 0.0 
0.999633 -0.00159233 0.0 
0.8884 0.346022 0.0 
1.00758 0.00348701 0.0 
0.112516 0.00197135 0.0 
0.311462 -0.26262 0.0 
0.229817 0.0214454 0.0 
0.975205 0.283064 0.0 
1.00499 -0.00287389 0.0 
1.00867 0.000130147 0.0 
0.265419 0.017072 0.0 
0.470165 -0.0258348 0.0 
1.00789 -0.00170133 0.0 
1.01093 -0.00223749 0.0 
0.037537 -0.00861705 0.0 
0.350693 0.0508591 0.0 
0.0101081 -0.000854258 0.0 
0.0726314 -0.00827621 0.0 
0.00157101 -0.000404116 0.0 
1.01048 0.00145001 0.0 
0.0703825 0.00608988 0.0 
0.634404 0.195475 0.0 
1.01638 0.116543 0.0 
1.06316 -0.056947 0.0 
0.997244 -0.00320756 0.0 
0.221829 0.0684067 0.0 
0.221962 -0.0199838 0.0 
0.242377 0.237715 0.0 
0.00797172 0.000366899 0.0 
0.526771 0.0957763 0.0 
0.121282 0.0194153 0.0 
0.982229 0.175492 0.0 
-3.84563e-146 4.44294e-147 0.0 
0.999953 -0.000937813 0.0 
0.98486 -0.0307646 0.0 
1.00955 -0.0014415 0.0 
1.00561 0.00750552 0.0 
1.0072 -0.000308436 0.0 
0.509889 0.236619 0.0 
0.99884 -0.000131907 0.0 
-3.22574e-223 -1.31215e-224 0.0 
0.789643 0.165719 0.0 
0.217779 -0.0186328 0.0 
1.08908 -0.143217 0.0 
0.0433024 -0.00124503 0.0 
-2.49421e-279 2.71939e-279 0.0 
6.25515e-05 5.22063e-06 0.0 
0.259847 0.0110784 0.0 
1.32837e-301 8.95233e-303 0.0 
1.01096 -0.00137578 0.0 
1.0071 0.000617623 0.0 
0.0564719 -0.000742913 0.0 
1.00834 0.00060993 0.0 
1.00195 -0.0995276 0.0 
1.00653 0.000165002 0.0 
-2.88467e-292 -1.13107e-293 0.0 
0.00460327 -0.000431024 0.0 