<VTKFile type="UnstructuredGrid" version="0.1" byte_order="LittleEndian">
  <UnstructuredGrid>
    <Piece NumberOfPoints="12544" NumberOfCells="24932">
      <Points>
        <DataArray type = "Float64" NumberOfComponents="3" format="ascii">
0 0 0.0 
14 0 0.0 
14 8 0.0 
0 8 0.0 
4.38439 3.94377 0.0 
12.8057 1.94595 0.0 
0.483697 5.24337 0.0 
4.43153 3.97227 0.0 
4.22876 4.06781 0.0 
6.52963 4.0188 0.0 
4.92121 3.99566 0.0 
4.16858 4.05745 0.0 
1.95665 6.95462 0.0 
4.08596 3.93674 0.0 
4.68402 3.98337 0.0 
4.4023 3.95598 0.0 
4.00862 3.98581 0.0 
4.04027 3.97809 0.0 
4.05477 4.02613 0.0 
4.03756 4.03073 0.0 
8.29677 5.77683 0.0 
4.97555 4.00522 0.0 
3.93452 3.92775 0.0 
4.00922 3.99881 0.0 
4.02803 4.04844 0.0 
4.00109 4.00204 0.0 
4.01927 3.99345 0.0 
4.0547 3.96977 0.0 
4.5166 3.97594 0.0 
4.84218 4.09374 0.0 
4.87999 3.99325 0.0 
3.98196 3.98783 0.0 
5.00749 4.02107 0.0 
4.36023 4.05917 0.0 
4.84627 3.99101 0.0 
4.03416 4.05264 0.0 
4.12387 3.9193 0.0 
5.00166 3.98677 0.0 
4.25997 4.09312 0.0 
3.95881 3.99748 0.0 
4.00063 4.00116 0.0 
4.39196 4.06927 0.0 
2.77151 1.33737 0.0 
4.22462 3.96616 0.0 
4.77363 3.98721 0.0 
3.99967 4.0114 0.0 
4.79206 4.0553 0.0 
4.62278 3.95949 0.0 
4.15467 4.05818 0.0 
13.5316 6.55656 0.0 
14 6.11123 0.0 
4.66411 4.04951 0.0 
3.96293 3.99513 0.0 
4.03268 4.02147 0.0 
3.77837 5.25417 0.0 
4.19117 4.06153 0.0 
3.99922 3.99464 0.0 
4.01759 3.99821 0.0 
5.40534 0.989516 0.0 
4.05639 3.9061 0.0 
14 5.21618 0.0 
8.55881 8 0.0 
4.00786 3.9903 0.0 
4.13667 4.04945 0.0 
4.46134 4.06579 0.0 
4.0113 4.00095 0.0 
4.01308 4.00992 0.0 
4.38183 3.95813 0.0 
4.10675 3.96646 0.0 
4.07268 3.96842 0.0 
4.27441 4.05318 0.0 
4.23725 3.95116 0.0 
4.01027 3.99982 0.0 
5.00128 3.99352 0.0 
4.08373 4.05666 0.0 
4.23278 4.06811 0.0 
4.08476 4.08 0.0 
5.04845 4.04311 0.0 
4.46922 3.87899 0.0 
7.88733 3.79333 0.0 
6.82082 1.43823 0.0 
4.18698 4.06295 0.0 
4.17447 4.07538 0.0 
4.36508 4.07002 0.0 
0.974503 1.05344 0.0 
4.28025 3.72374 0.0 
10.1833 0.248119 0.0 
4.02875 4.04115 0.0 
4.22602 4.02954 0.0 
3.98204 3.97395 0.0 
3.7391 1.31631 0.0 
1.26284 5.53443 0.0 
4.9568 4.01027 0.0 
4.57705 4.03051 0.0 
3.99735 4.00608 0.0 
3.91267 2.38613 0.0 
5.1819 4.12653 0.0 
4.01577 3.95866 0.0 
4.18143 4.0524 0.0 
4.12124 3.98374 0.0 
3.9991 3.99656 0.0 
4.15544 3.92346 0.0 
4.55529 3.91426 0.0 
6.54837 4.20004 0.0 
4.14971 3.96816 0.0 
4.02244 4.02798 0.0 
4.96396 3.9968 0.0 
0 1.4212 0.0 
5.0905 2.15481 0.0 
3.99804 4.00956 0.0 
5.01331 3.98969 0.0 
5.03988 4.02148 0.0 
4.00356 4.03076 0.0 
4.12754 3.92728 0.0 
4.07336 4.06871 0.0 
4.79296 3.98918 0.0 
4.08869 3.96254 0.0 
14 2.14346 0.0 
4.65355 3.98046 0.0 
13.5361 3.50022 0.0 
4.80847 4.03213 0.0 
4.10281 4.04967 0.0 
3.99252 4.00665 0.0 
4.00947 4.02943 0.0 
5.00025 4.00682 0.0 
4.26994 4.06876 0.0 
4.45022 3.97426 0.0 
4.24294 4.04149 0.0 
4.05784 3.98854 0.0 
3.84288 3.97339 0.0 
4.96238 4.00236 0.0 
4.10081 3.94382 0.0 
4.98235 4.01343 0.0 
5.15907 4.01807 0.0 
5.00368 4.02219 0.0 
10.7396 5.64099 0.0 
4.09093 3.96646 0.0 
4.17928 4.0787 0.0 
4.0374 4.03146 0.0 
4.02495 4.02882 0.0 
3.9818 4.03131 0.0 
3.96476 4.03852 0.0 
8.16322 6.52926 0.0 
3.97233 4.04194 0.0 
4.07978 4.054 0.0 
4.2218 4.06276 0.0 
4.00621 4.04562 0.0 
1.12644 3.34247 0.0 
4.51009 3.97607 0.0 
4.16735 3.94889 0.0 
5.03699 4.00707 0.0 
0.551231 5.01289 0.0 
5.11183 1.67758 0.0 
10.6674 7.61133 0.0 
4.03555 4.04122 0.0 
4.4292 3.97347 0.0 
4.23924 3.96757 0.0 
4.22082 4.06398 0.0 
13.2653 2.91651 0.0 
4.00756 4.02287 0.0 
4.05142 4.01968 0.0 
4.23103 3.92099 0.0 
4.17857 3.91238 0.0 
4.99106 3.99856 0.0 
3.9947 4.00336 0.0 
4.04637 4.0287 0.0 
4.05221 3.97999 0.0 
4.81711 4.02957 0.0 
4.10608 4.02928 0.0 
4.50985 7.40044 0.0 
5.0055 3.9981 0.0 
4.15942 4.03647 0.0 
4.90804 4.01731 0.0 
5.05919 4.01855 0.0 
2.15923 7.15628 0.0 
5.09496 4.09434 0.0 
4.02606 4.03063 0.0 
4.51957 3.97544 0.0 
4.61896 3.98024 0.0 
7.18887 6.80823 0.0 
1.24078 0.550265 0.0 
9.10545 7.45594 0.0 
2.38032 0.204862 0.0 
4.01517 4.03055 0.0 
3.99882 3.99972 0.0 
4.50106 3.97464 0.0 
3.99908 3.98836 0.0 
4.04457 4.03443 0.0 
11.717 4.54424 0.0 
4.02217 4.02155 0.0 
4.1938 4.04426 0.0 
4.21507 3.9482 0.0 
6.27489 0.239279 0.0 
4.97222 4.02124 0.0 
13.4873 0.257635 0.0 
4.48309 4.01275 0.0 
3.80122 4.10888 0.0 
4.98277 3.98029 0.0 
11.9473 3.59927 0.0 
5.1327 4.04445 0.0 
4.55592 4.05953 0.0 
4.12888 4.06214 0.0 
4.10016 3.95849 0.0 
4.94191 3.96618 0.0 
4.04473 3.97556 0.0 
3.9901 3.98452 0.0 
4.97439 3.96659 0.0 
4.00359 4.03909 0.0 
4.0846 4.01342 0.0 
4.45423 3.97302 0.0 
3.99441 4.00023 0.0 
4.88414 3.99365 0.0 
4.05624 4.00717 0.0 
4.67895 4.01774 0.0 
3.99899 4.01393 0.0 
4.0686 3.79132 0.0 
5.00666 4.00648 0.0 
13.2253 0 0.0 
5.67324 3.89005 0.0 
10.1848 6.24919 0.0 
4.30527 4.06929 0.0 
9.50935 4.48832 0.0 
4.05017 4.03163 0.0 
5.08198 4.04957 0.0 
5.02947 4.00625 0.0 
5.00555 4.00537 0.0 
4.08363 3.99075 0.0 
4.94572 3.9982 0.0 
4.55128 4.07685 0.0 
4.08711 3.98632 0.0 
4.01232 4.00663 0.0 
4.5307 3.97738 0.0 
4.00223 3.92739 0.0 
3.98048 4.05294 0.0 
4.98748 4.00399 0.0 
4.13386 4.04638 0.0 
3.98816 4.01224 0.0 
7.59582 1.18535 0.0 
0.848755 1.28674 0.0 
3.98869 3.90005 0.0 
3.99752 4.02893 0.0 
4.01884 3.99521 0.0 
4.44103 4.10325 0.0 
3.98628 3.99582 0.0 
4.50972 3.96362 0.0 
4.01754 3.97341 0.0 
4.09476 4.08011 0.0 
11.3536 7.26168 0.0 
4.67663 3.98358 0.0 
4.90163 4.00378 0.0 
9.55669 5.91713 0.0 
5.17999 4.20915 0.0 
3.62193 3.35812 0.0 
4.3171 4.12404 0.0 
4.94568 3.99544 0.0 
3.93549 3.94275 0.0 
4.77225 3.96575 0.0 
4.5857 3.97888 0.0 
5.10311 4.0306 0.0 
4.07627 3.96096 0.0 
5.7418 4.11781 0.0 
4.02748 3.99765 0.0 
4.04021 3.98137 0.0 
4.12076 4.01226 0.0 
4.18405 4.07138 0.0 
4.11401 3.95877 0.0 
3.26832 4.20049 0.0 
4.26538 3.96701 0.0 
4.02839 3.85949 0.0 
9.48626 1.06994 0.0 
4.59603 4.06332 0.0 
3.9961 4.02386 0.0 
3.91627 4.75043 0.0 
1.55399 5.07439 0.0 
4.27617 4.07097 0.0 
5.18793 4.05304 0.0 
4.09122 3.91786 0.0 
3.98111 4.00805 0.0 
5.26504 3.98108 0.0 
3.99352 3.97666 0.0 
0.747562 5.69493 0.0 
4.50094 3.96706 0.0 
4.12596 4.3086 0.0 
4.70065 4.04461 0.0 
8.28094 0.596167 0.0 
3.98586 3.96653 0.0 
4.73279 4.04194 0.0 
11.3109 3.9311 0.0 
4.20599 4.06941 0.0 
4.64856 3.98281 0.0 
5.03464 3.99029 0.0 
4.02402 4.04636 0.0 
5.00771 4.00059 0.0 
4.76934 3.97834 0.0 
4.06133 4.06985 0.0 
5.04267 4.00787 0.0 
3.99417 4.04189 0.0 
7.6181 7.09785 0.0 
4.71441 7.15979 0.0 
3.99997 3.99241 0.0 
4.41092 4.08744 0.0 
5.72168 3.97443 0.0 
3.98918 4.03714 0.0 
6.02554 0.627646 0.0 
4.01059 4.0357 0.0 
3.99686 4.00472 0.0 
4.27012 4.05517 0.0 
4.38807 3.98785 0.0 
4.00056 4.04248 0.0 
4.60078 4.055 0.0 
2.48135 1.40934 0.0 
3.9896 4.00463 0.0 
4.6703 4.12294 0.0 
3.98613 3.98439 0.0 
4.84518 4.02729 0.0 
4.00273 4.04763 0.0 
4.02428 4.00868 0.0 
2.54851 4.35956 0.0 
4.3222 4.07411 0.0 
5.00397 3.99911 0.0 
3.99622 3.95961 0.0 
4.99702 4.01381 0.0 
3.98643 3.99986 0.0 
4.56409 3.94817 0.0 
7.06118 4.18359 0.0 
3.99581 3.98523 0.0 
4.13854 3.96258 0.0 
6.11096 3.94188 0.0 
3.98481 4.00073 0.0 
3.97761 4.0047 0.0 
8.39153 6.28241 0.0 
4.0488 4.03914 0.0 
4.11077 4.06077 0.0 
3.98558 4.00796 0.0 
4.13741 3.96774 0.0 
4.01859 3.98148 0.0 
4.33623 4.0837 0.0 
4.01707 3.9715 0.0 
10.4898 1.15433 0.0 
4.02455 3.88899 0.0 
4.75606 4.03945 0.0 
9.04276 5.96039 0.0 
4.07076 4.03121 0.0 
3.99742 4.04784 0.0 
5.00018 3.98426 0.0 
4.39901 4.171 0.0 
5.6936 4.04652 0.0 
4.27037 4.11663 0.0 
4.25627 3.9677 0.0 
4.98922 3.99827 0.0 
4.01574 3.99897 0.0 
4.02241 4.04141 0.0 
3.9487 4.03134 0.0 
4.02972 4.05235 0.0 
4.11002 3.98431 0.0 
4.01777 4.04818 0.0 
4.0378 4.00667 0.0 
4.32775 4.10155 0.0 
4.0266 3.96232 0.0 
4.0188 3.97459 0.0 
4.10695 3.94953 0.0 
13.0064 4.46872 0.0 
5.02611 4.00685 0.0 
4.28117 3.92206 0.0 
4.03778 3.99834 0.0 
4.20591 4.06615 0.0 
4.02798 4.01078 0.0 
4.99939 3.99739 0.0 
4.27242 3.94793 0.0 
4.98817 4.01929 0.0 
3.95357 4.06538 0.0 
4.48443 4.11102 0.0 
4.11408 3.99567 0.0 
5.28663 3.8308 0.0 
3.99608 4.01533 0.0 
3.99962 4.00016 0.0 
4.00572 3.98505 0.0 
4.38287 3.97092 0.0 
10.7084 2.37312 0.0 
4.58352 4.18397 0.0 
3.99904 3.97967 0.0 
3.94862 4.04213 0.0 
4.09758 3.96956 0.0 
5.00079 3.98878 0.0 
4.31355 4.06923 0.0 
3.97185 4.00557 0.0 
3.99876 3.96428 0.0 
4.79084 4.03467 0.0 
4.17122 3.93032 0.0 
8.94038 7.70202 0.0 
2.33056 5.57699 0.0 
8.52847 7.37257 0.0 
5.57889 4.10824 0.0 
5.01225 4.00853 0.0 
4.37976 4.07528 0.0 
10.8478 4.42307 0.0 
5.00794 4.01633 0.0 
3.97614 4.01755 0.0 
5.51379 7.4427 0.0 
5.46984 4.17168 0.0 
10.0516 5.61716 0.0 
9.15388 3.83278 0.0 
4.02035 4.05208 0.0 
4.05996 4.02956 0.0 
4.0725 4.06182 0.0 
4.78319 4.01065 0.0 
4.00675 3.9944 0.0 
8.98125 6.17249 0.0 
7.06985 8 0.0 
4.77174 3.97521 0.0 
5.01586 4.00977 0.0 
5.52864 3.88875 0.0 
4.01111 4.01647 0.0 
4.17055 3.96755 0.0 
4.03117 3.76284 0.0 
4.12652 4.08914 0.0 
5.00674 4.00102 0.0 
3.99309 4.00997 0.0 
4.96422 4.00722 0.0 
5.04696 4.0697 0.0 
3.9863 3.99851 0.0 
4.03831 3.95277 0.0 
3.98294 3.96111 0.0 
4.28981 4.11298 0.0 
4.3231 4.06066 0.0 
4.00251 4.00671 0.0 
4.00032 4.00368 0.0 
4.01978 4.02634 0.0 
4.08338 4.04534 0.0 
11.9447 8 0.0 
4.57626 4.05875 0.0 
4.01387 4.0056 0.0 
3.99511 3.99395 0.0 
4.49574 4.04499 0.0 
4.14347 4.06123 0.0 
4.88925 4.06774 0.0 
4.0258 4.07444 0.0 
4.89135 4.15887 0.0 
4.82868 4.02814 0.0 
5.00847 4.01115 0.0 
3.97954 4.04522 0.0 
13.4854 0 0.0 
3.98276 4.03655 0.0 
3.97716 3.98171 0.0 
3.98686 4.01708 0.0 
5.00841 3.97606 0.0 
4.99901 3.99971 0.0 
0 1.15025 0.0 
4.04122 3.94064 0.0 
4.096 3.95606 0.0 
7.04095 6.9955 0.0 
3.97814 4.00223 0.0 
4.03066 4.0465 0.0 
4.18919 3.9015 0.0 
4.05469 3.98217 0.0 
4.01743 3.9849 0.0 
4.14352 3.96692 0.0 
4.58618 3.9793 0.0 
4.07212 4.04076 0.0 
9.1402 8 0.0 
4.18326 4.04509 0.0 
4.0703 4.01847 0.0 
4.35716 4.02398 0.0 
4.37007 4.07108 0.0 
3.96447 3.92683 0.0 
4.65756 4.04989 0.0 
4.99689 3.99053 0.0 
8.51121 4.33185 0.0 
12.1347 7.75548 0.0 
4.40894 4.05264 0.0 
4.81325 3.98953 0.0 
3.9197 3.99687 0.0 
5.0027 3.99265 0.0 
[...]
<PointData>
  <DataArray type = "Float64" Name="Vitesse" NumberOfComponents="3" format="ascii">
1 0 0.0 
1.00747 0 0.0 
1.00603 0 0.0 
1 0 0.0 
0.441308 0.00461727 0.0 
1.00888 0.000186242 0.0 
0.999967 0.000644439 0.0 
0.00912384 0.00129133 0.0 
0.0964681 0.00696737 0.0 
0.579536 -0.0019523 0.0 
-2.03844e-24 -1.99564e-25 0.0 
6.98151e-13 9.73137e-14 0.0 
1.00159 0.00190251 0.0 
1.05046 -0.184922 0.0 
0.00600289 0.000571835 0.0 
0.239911 0.00545594 0.0 
0.323396 -0.20241 0.0 
-8.58549e-60 9.03321e-61 0.0 
0 0 0.0 
0.0450402 0.0150925 0.0 
1.00941 -0.00168691 0.0 
-8.69891e-13 1.4358e-13 0.0 
0.872661 -0.121716 0.0 
0 0 0.0 
0.836957 0.360395 0.0 
-1.62285e-159 2.63472e-159 0.0 
0 0 0.0 
0.33504 -0.0678939 0.0 
0.00519321 0.000856171 0.0 
0.563706 -0.0375362 0.0 
7.16752e-05 2.84485e-06 0.0 
0.590552 -0.228401 0.0 
0.0596085 -0.0182456 0.0 
0 0 0.0 
0.00737939 0.00114167 0.0 
0.869543 0.348821 0.0 
1.08872 -0.142906 0.0 
0.126128 0.0174328 0.0 
0.716011 0.0623985 0.0 
0.686974 -0.063293 0.0 
3.20864e-143 -5.23165e-143 0.0 
0.021488 -0.000235259 0.0 
1.00263 -0.00303268 0.0 
0.0311865 0.00144679 0.0 
0.0112835 0.000827202 0.0 
0.222205 0.221336 0.0 
0.142626 -0.0144824 0.0 
0.246946 0.00905702 0.0 
0.0449932 0.00792678 0.0 
1.00698 -0.000376222 0.0 
1.00746 -0.00046798 0.0 
6.21062e-07 -2.28579e-08 0.0 
0.671085 -0.0826451 0.0 
0 0 0.0 
1.0098 0.0166828 0.0 
3.06093e-06 1.98239e-07 0.0 
0.192942 -0.294117 0.0 
-2.12738e-218 3.45023e-218 0.0 
1.00907 -0.00098835 0.0 
1.04044 -0.197374 0.0 
1.00707 -0.0014388 0.0 
1.00797 0 0.0 
4.98672e-12 -2.46005e-12 0.0 
-7.52627e-85 -1.5656e-85 0.0 
0.00644562 4.67085e-06 0.0 
-2.81843e-178 -3.1525e-178 0.0 
-1.94926e-177 -1.01552e-177 0.0 
0.201962 0.00456662 0.0 
0.139948 -0.0101552 0.0 
0.229769 -0.0355628 0.0 
0 0 0.0 
0.366058 -0.00507195 0.0 
-3.26531e-182 -3.65235e-182 0.0 
0.0650769 0.0141987 0.0 
0.611038 0.162073 0.0 
0.0974817 0.00595564 0.0 
1.01084 0.270753 0.0 
0.197535 -0.02639 0.0 
1.04593 -0.0138951 0.0 
0.990021 0.00244043 0.0 
1.0098 0.000344616 0.0 
0.0714248 0.00754993 0.0 
0.563809 0.0812102 0.0 
0.0284504 6.21812e-05 0.0 
1.00025 -0.000650818 0.0 
1.06 -0.0513488 0.0 
1.00805 4.11708e-05 0.0 
0.733468 0.335535 0.0 
-2.4766e-258 -1.57985e-259 0.0 
0.716477 -0.267516 0.0 
1.00575 -0.00366574 0.0 
0.999946 0.00202678 0.0 
0.00348044 -0.000549076 0.0 
-6.45301e-240 5.09313e-241 0.0 
0.12618 0.0780829 0.0 
1.00802 -0.00992006 0.0 
0.87166 -0.0444954 0.0 
0.944292 -0.359775 0.0 
-3.48051e-170 -4.69596e-171 0.0 
0 0 0.0 
0.118012 -0.223343 0.0 
1.037 -0.103687 0.0 
0.798612 0.00783315 0.0 
0.994996 -0.0074925 0.0 
1.70581e-05 1.54954e-07 0.0 
0.332845 0.177032 0.0 
0.00603437 -8.89728e-05 0.0 
1 0 0.0 
1.01306 -0.00284389 0.0 
0.197948 0.181699 0.0 
0.106664 0.0188809 0.0 
0.0794471 -0.0145989 0.0 
0.638083 0.359626 0.0 
1.04942 -0.130417 0.0 
0.951002 0.279804 0.0 
0 0 0.0 
0.386902 -0.0451206 0.0 
1.00873 0.000354097 0.0 
0.021807 0.00117027 0.0 
1.01258 -0.00036005 0.0 
0.00227961 -0.000229729 0.0 
0.0630041 0.0188777 0.0 
0.283103 0.0467284 0.0 
0.61788 0.370393 0.0 
0.019189 -0.010536 0.0 
0.0353332 0.0024487 0.0 
-5.03019e-14 -3.55777e-15 0.0 
0 0 0.0 
0 0 0.0 
0.88754 -0.0261463 0.0 
-3.36468e-43 -1.07321e-44 0.0 
0.914672 -0.130896 0.0 
0.0229837 -0.00452809 0.0 
0.161626 -0.00556636 0.0 
0.0629505 -0.0176519 0.0 
1.00871 -0.000632104 0.0 
0.20418 -0.0191546 0.0 
0.638806 0.0916796 0.0 
0.101756 0.0364326 0.0 
0.307175 0.165313 0.0 
0.646354 0.181935 0.0 
0.723738 0.121273 0.0 
1.00895 -0.00114047 0.0 
0.72126 0.155978 0.0 
0.554361 0.151131 0.0 
2.61458e-129 5.3311e-130 0.0 
0.761534 0.327714 0.0 
0.999375 -0.000583047 0.0 
0.000293933 2.90584e-05 0.0 
0.535746 -0.0309289 0.0 
0.0609808 -0.00159032 0.0 
0.999922 0.000676415 0.0 
1.01076 -0.00231208 0.0 
1.00701 -0.000141021 0.0 
0.662457 0.278577 0.0 
9.6049e-10 1.04906e-11 0.0 
2.4491e-05 -4.09972e-07 0.0 
-3.05314e-24 -2.69175e-25 0.0 
1.00905 0.000244364 0.0 
0.472229 0.330769 0.0 
2.07727e-254 6.47117e-255 0.0 
0.946269 -0.0512637 0.0 
1.07376 -0.0951969 0.0 
6.97283e-05 5.16672e-06 0.0 
0.18575 -0.0405916 0.0 
-2.11433e-25 -7.12584e-26 0.0 
0 0 0.0 
-3.17311e-16 5.11665e-17 0.0 
0 0 0.0 
1.00853 0.00128967 0.0 
0.0341222 0.00766988 0.0 
0 0 0.0 
0.00168666 -0.000138344 0.0 
0.087362 -0.00930174 0.0 
1.00202 0.00172808 0.0 
0.647667 -0.0461338 0.0 
0.383097 0.198609 0.0 
0.0127456 0.000698841 0.0 
0.00672829 0.00054739 0.0 
1.00971 -0.0010109 0.0 
1.0005 -0.000464341 0.0 
1.00778 -0.000314235 0.0 
1.00202 -0.000373245 0.0 
0.600526 0.339093 0.0 
0.0493729 -0.117058 0.0 
0.0120869 0.00117051 0.0 
0.479342 -0.445791 0.0 
0.120123 0.0433254 0.0 
1.01171 0.000112227 0.0 
-1.42944e-88 -4.92728e-89 0.0 
0 0 0.0 
0.460873 -0.0127452 0.0 
1.0088 -5.69306e-05 0.0 
0.0441559 -0.00698615 0.0 
1.0076 3.80295e-05 0.0 
-1.44964e-237 -9.50678e-239 0.0 
0.920885 0.0364867 0.0 
0.17548 0.0124554 0.0 
1.01153 -0.00114772 0.0 
0.256136 -0.0228002 0.0 
7.08012e-06 2.11198e-07 0.0 
0.394626 0.0722751 0.0 
0.479929 -0.0524854 0.0 
0.290629 0.0144188 0.0 
0.109358 -0.0190661 0.0 
0.595028 -0.346788 0.0 
0.302616 0.0183498 0.0 
0.7134 0.33612 0.0 
-1.26172e-267 -8.10011e-269 0.0 
0.0101292 5.02253e-05 0.0 
0.208846 -0.157449 0.0 
2.149e-08 2.15579e-09 0.0 
-2.64683e-285 -1.69919e-286 0.0 
-2.38283e-271 6.5228e-273 0.0 
0.316121 0.266865 0.0 
1.02478 -0.106834 0.0 
0.0234421 -0.0109868 0.0 
1.00759 0 0.0 
0.887163 0.0162386 0.0 
1.00813 -0.000661297 0.0 
0.0206353 0.00198842 0.0 
1.00853 -0.00130242 0.0 
-2.15302e-20 -6.05129e-21 0.0 
0.261003 -0.0290554 0.0 
0.0534374 -0.00205494 0.0 
0.0211203 -0.0102512 0.0 
2.69492e-177 2.72096e-178 0.0 
-2.08178e-36 4.62072e-38 0.0 
0.221635 -0.0118282 0.0 
0 0 0.0 
-7.59391e-183 -3.95624e-183 0.0 
7.98471e-07 6.34661e-08 0.0 
0.935662 -0.235139 0.0 
0.75969 0.198742 0.0 
0.00190255 -0.000237984 0.0 
0 0 0.0 
0.433626 0.110982 0.0 
1.0091 0.000362879 0.0 
1.00017 -0.000661498 0.0 
0.942498 -0.176843 0.0 
0.605969 0.313837 0.0 
0 0 0.0 
0.656162 0.000791712 0.0 
0.460663 -0.192228 0.0 
0.157056 0.00573467 0.0 
0.767805 -0.334529 0.0 
1.00684 0.256139 0.0 
1.00696 -0.000210935 0.0 
1.95089e-05 4.80184e-07 0.0 
8.39596e-81 1.03581e-81 0.0 
1.00865 -0.000983099 0.0 
1.02988 -0.0382425 0.0 
0.995125 -0.0241838 0.0 
1.04987 0.0737354 0.0 
0.010472 0.000729379 0.0 
0.849906 -0.119494 0.0 
0.227832 0.00978309 0.0 
0.00484043 0.000431619 0.0 
0.157472 -0.0164604 0.0 
0.54696 -0.0865081 0.0 
0.849536 -0.0208898 0.0 
5.99469e-267 -1.03825e-266 0.0 
-9.09643e-83 1.11609e-83 0.0 
-4.2491e-260 -2.72789e-261 0.0 
0.388275 0.051099 0.0 
0.401314 -0.0363586 0.0 
0.981282 0.00747534 0.0 
0.0219799 0.000301627 0.0 
1.00083 -0.150327 0.0 
1.00846 0.000223307 0.0 
0.0775201 -0.00612686 0.0 
0.541232 0.298399 0.0 
1.01184 0.0348796 0.0 
0.999316 0.00255449 0.0 
0.0921534 0.00417604 0.0 
0.344094 -0.0255031 0.0 
1.0855 -0.180218 0.0 
0.503705 0.00954337 0.0 
0.314519 0.0150766 0.0 
0.709202 -0.378218 0.0 
1.00002 0.00107977 0.0 
0.108358 0.00434232 0.0 
1.03699 0.0984347 0.0 
4.43535e-05 -4.62114e-06 0.0 
1.00856 0.000167698 0.0 
0.772495 -0.286711 0.0 
0.00329168 -0.000475769 0.0 
0.832009 0.0016959 0.0 
0.224318 0.0207183 0.0 
1.87458e-07 4.70452e-08 0.0 
0.122611 0.0165815 0.0 
0.818217 0.366092 0.0 
0.0295156 0.000991362 0.0 
0.0956786 0.00452972 0.0 
0.969589 0.303504 0.0 
0.0661601 -0.00168792 0.0 
0.710625 0.270663 0.0 
1.009 -0.000735927 0.0 
1.00932 0.00155667 0.0 
0.27664 -0.347296 0.0 
0.377444 -0.00112154 0.0 
0.493624 0.00809197 0.0 
0.675712 0.241034 0.0 
1.00894 -0.000242332 0.0 
0.706042 0.375669 0.0 
0.118537 0.02809 0.0 
0 0 0.0 
3.75505e-110 2.48519e-111 0.0 
0.726494 0.308219 0.0 
-4.32266e-24 1.72098e-25 0.0 
1.00191 -0.00278833 0.0 
0.344935 -0.0242861 0.0 
0.84591 -0.0288065 0.0 
0.608398 -0.292274 0.0 
0.00352526 -0.000406027 0.0 
0.761332 0.30521 0.0 
0 0 0.0 
0.994152 0.00401528 0.0 
0.129413 0.00245655 0.0 
0.0237267 0.00474762 0.0 
0.842289 -0.320069 0.0 
0.0329546 -0.0116843 0.0 
0.424194 -0.123797 0.0 
0.378061 0.0104598 0.0 
0.974633 -0.0049234 0.0 
0.579438 -0.433732 0.0 
0.1919 -0.0109445 0.0 
0.681915 0.00822724 0.0 
0.448465 -0.100465 0.0 
0.540865 -0.0341803 0.0 
1.009 -0.00124639 0.0 
0.322959 0.107927 0.0 
0.496372 0.106107 0.0 
0.439363 0.0250008 0.0 
0.0223959 -0.00107485 0.0 
0.262592 -0.0996941 0.0 
0.347817 0.00944027 0.0 
0.829319 -0.362601 0.0 
1.00834 0.000172836 0.0 
0.994624 -0.18119 0.0 
0.004547 -0.000316232 0.0 
1.00886 -0.00118995 0.0 
0 0 0.0 
0.749687 0.27905 0.0 
0.148531 0.0172131 0.0 
1.12822 0.0490011 0.0 
0.492726 -0.011446 0.0 
1.04243 0.0991523 0.0 
0.00816293 0.000466039 0.0 
0.00372237 0.000593659 0.0 
-4.37766e-211 7.09979e-211 0.0 
0.76833 0.367218 0.0 
0.746706 0.0633021 0.0 
0.86428 0.354706 0.0 
0 0 0.0 
0.814067 0.356936 0.0 
9.74544e-269 3.03594e-269 0.0 
0.746983 0.038825 0.0 
0.943066 -0.334323 0.0 
0.701092 -0.295399 0.0 
0.745068 -0.0902683 0.0 
1.01061 -0.000126227 0.0 
0.048709 -0.00342767 0.0 
0.869015 -0.0282208 0.0 
0 0 0.0 
0.112833 0.00766176 0.0 
5.35068e-296 1.70895e-296 0.0 
0.0256856 0.00665897 0.0 
0.409006 -0.00322027 0.0 
0.0458003 -0.00979382 0.0 
0.810287 0.127096 0.0 
0.754272 -0.00397818 0.0 
9.88882e-156 7.74055e-157 0.0 
1.00859 0.0240614 0.0 
0.386531 0.257118 0.0 
0.0155799 -0.0609452 0.0 
0.497228 -0.354713 0.0 
0.00688444 0.000604605 0.0 
1.0091 0.000315818 0.0 
1.10551 -0.00103304 0.0 
0.697322 -0.448807 0.0 
0.767394 0.0874036 0.0 
0.0437122 -0.00209031 0.0 
0.107619 0.0160403 0.0 
0.0164754 0.0011232 0.0 
0.595708 -0.0256902 0.0 
0.832678 -0.353869 0.0 
0.00262431 -0.000257302 0.0 
0.930227 -0.0758947 0.0 
1.00781 -0.000182473 0.0 
1.00044 0.00525103 0.0 
1.00817 -0.000431382 0.0 
0.801694 -0.023825 0.0 
0.0313867 -0.0105586 0.0 
0.13748 -0.000284476 0.0 
1.01114 -0.000877585 0.0 
0.0437594 -0.0168208 0.0 
0.590543 0.0804624 0.0 
1.00979 0.000302515 0.0 
0.985064 -0.0292831 0.0 
1.00896 -0.000787369 0.0 
0.943516 -0.000437556 0.0 
0.838885 0.349816 0.0 
0 0 0.0 
0.854511 0.255183 0.0 
1.85142e-112 -1.43952e-113 0.0 
-2.81618e-185 2.28092e-185 0.0 
1.00872 -0.0010801 0.0 
1.00905 0 0.0 
0.128564 0.00591214 0.0 
0.0362835 -0.0103434 0.0 
0.894062 0.0198644 0.0 
1.04995e-123 5.59203e-124 0.0 
0.00057775 -2.47853e-05 0.0 
1.00793 -0.0954386 0.0 
1.02708 0.216693 0.0 
0.0258013 -0.000533373 0.0 
0.318739 0.133168 0.0 
7.79175e-05 -1.25513e-05 0.0 
0.415936 -0.0388301 0.0 
0.435435 -0.147423 0.0 
1.00971 -0.294816 0.0 
0.797096 -0.260994 0.0 
0.982314 0.0796522 0.0 
0 0 0.0 
-1.46298e-67 -2.80595e-67 0.0 
0.00614578 0.00537619 0.0 
0.323747 0.168453 0.0 
0.0727314 0.0117067 0.0 
1.00653 0 0.0 
0.0101894 -0.000780417 0.0 
0 0 0.0 
0.335075 -0.349179 0.0 
1.98511e-121 -8.0939e-123 0.0 
0.245065 0.0374661 0.0 
0.316726 -0.0274213 0.0 
0.903038 0.289688 0.0 
1.01654 -0.0440845 0.0 
-1.28358e-13 1.1399e-14 0.0 
0.0315195 -0.0143 0.0 
0.726876 0.191046 0.0 
1.00755 0 0.0 
0.677569 0.198869 0.0 
0.665522 -0.216096 0.0 
0.500805 0.151906 0.0 
0.226677 0.0234747 0.0 
0 0 0.0 
1 0 0.0 
1.0358 -0.273029 0.0 
0.594838 -0.0741741 0.0 
1.00965 -0.000800384 0.0 
0.536844 -0.0624377 0.0 
0.814355 0.351888 0.0 
1.09279 -0.0937296 0.0 
0 0 0.0 
1.55418e-08 -5.02343e-09 0.0 
0.0426169 -0.00153377 0.0 
7.28894e-05 1.06162e-05 0.0 
8.07462e-05 2.67689e-05 0.0 
1.00761 0 0.0 
0 0 0.0 
0 0 0.0 
-3.26181e-246 -2.09146e-247 0.0 
0.0515515 -0.00118324 0.0 
0.880421 -0.170902 0.0 
-1.16619e-12 9.60966e-14 0.0 
0.0894554 0.0109962 0.0 
1.00911 -0.00164795 0.0 
1.00655 -6.22316e-05 0.0 
0 0 0.0 
0.00636624 4.21978e-05 0.0 
0.801063 -0.0303522 0.0 
0.0736673 0.0158441 0.0 
1.00808 0.00187009 0.0 
0.117527 -0.0215584 0.0 
1.00003 0.000515797 0.0 
0.745626 -0.428861 0.0 
0.0621464 0.00226764 0.0 
0.282498 0.0769519 0.0 
0.00787812 0.000117977 0.0 
0.0524243 -0.0138831 0.0 
0.0014945 -0.00022201 0.0 
1.62089e-128 -6.60883e-130 0.0 
1.00731 -0.00025798 0.0 
0.953958 -0.0037718 0.0 
0.28197 -0.031588 0.0 
0.959476 0.00560636 0.0 
0.0331162 -0.0150839 0.0 
0.264859 0.0640973 0.0 
0.802427 -0.35212 0.0 
0.31787 -0.0166686 0.0 
0.0784859 -0.0258108 0.0 
0.000983114 6.95537e-05 0.0 
0.00773876 -0.00106113 0.0 
1.00789 4.67719e-05 0.0 
0 0 0.0 
0.645106 -0.0092125 0.0 
0.632152 0.284812 0.0 
0.85843 -0.00439658 0.0 
-2.61554e-190 1.01312e-190 0.0 
1.0096 0.000158989 0.0 
0.00732419 0.000261057 0.0 
0.101963 0.0500665 0.0 
0.867369 0.330308 0.0 
1.00051 0.000590922 0.0 
0.602885 -0.00196537 0.0 
1.01028 0.00133532 0.0 
0.507707 0.277305 0.0 
-2.35587e-15 -3.4694e-16 0.0 
0 0 0.0 
0.995174 -0.00427472 0.0 
1.00005 0.00162675 0.0 
0.0471941 -0.0139474 0.0 
0.968567 -0.341652 0.0 
1.00417 0.0155552 0.0 
0.00680817 0.000201706 0.0 
0.584196 0.114077 0.0 
0.0632754 -0.0131688 0.0 
0.850103 0.330843 0.0 
0.35314 0.0919789 0.0 
0.0806723 -0.00959441 0.0 
1.00921 0.000188334 0.0 
0.974634 0.1749 0.0 
0.0022241 -0.000139885 0.0 
0.561676 -0.207869 0.0 
0.80617 0.165648 0.0 
0.292841 0.0613127 0.0 
0.248779 0.238127 0.0 
0.0134148 -0.00454702 0.0 
1.01102 -0.00134711 0.0 
0.823067 -0.202374 0.0 
1.00001 -0.000531964 0.0 
1.25613e-151 9.3702e-153 0.0 
1.01042 -0.000348933 0.0 
0.61649 -0.116738 0.0 
0.98834 -0.00574388 0.0 
1.0002 0.000977499 0.0 
0.563762 0.0550357 0.0 
0.837973 0.0259877 0.0 
1.00679 -0.00371478 0.0 
0.158678 -0.252345 0.0 
0.618622 -0.0849264 0.0 
1.02869 0.00774413 0.0 
0.446277 -0.0392806 0.0 
0 0 0.0 
0 0 0.0 
0.14291 -0.121053 0.0 
0 0 0.0 
0.65587 0.00884423 0.0 
0.0572568 0.0716366 0.0 
0.843688 0.342449 0.0 
0.0255509 -0.00737083 0.0 
0.991604 -0.260127 0.0 
0.585022 -0.0376217 0.0 
0.742926 0.302484 0.0 
0.619372 0.0108867 0.0 
0.00795122 6.97639e-05 0.0 
0.00549481 0.000941027 0.0 
0.00462661 0.000456318 0.0 
0.03019 -0.0130655 0.0 
1.00817 -0.000577047 0.0 
0.0761452 0.0156027 0.0 
0.859389 -0.402533 0.0 
0.69708 -0.201427 0.0 
1.00802 6.65966e-05 0.0 
0.923505 -0.211214 0.0 
0.00303057 -0.000378674 0.0 
0.0284133 -0.00871974 0.0 
0.776522 0.0639005 0.0 
0.67808 -0.367522 0.0 
1.00493 0.00113389 0.0 
1.00873 0.000281692 0.0 
0.593941 -0.14325 0.0 
0.00074087 -9.04494e-05 0.0 
0.0146957 0.0055989 0.0 
0.139354 0.00950426 0.0 
0.812449 -0.223157 0.0 
1.00924 0.000222757 0.0 
6.24362e-05 6.34911e-06 0.0 
1.00055 0.00429408 0.0 
0.0714681 0.0063173 0.0 
0 0 0.0 
0.99995 -0.000485628 0.0 
0.00924126 0.000156356 0.0 
0.00795775 0.000713601 0.0 
1.00591 -0.00577448 0.0 
0.112253 0.00971935 0.0 
0.311871 -0.261995 0.0 
0.899569 0.0012842 0.0 
1.00498 -0.00288097 0.0 
0.151393 0.0080634 0.0 
0.470434 -0.0254133 0.0 
0.0370674 -0.00829513 0.0 
0.852223 0.0290744 0.0 
0.0206247 0.00091089 0.0 
0.230199 0.0199111 0.0 
1.03862 -0.0125656 0.0 
0.0918287 0.0045606 0.0 
0.160698 -0.140357 0.0 
0.303181 -0.100292 0.0 
0.696043 -0.158728 0.0 
1e-307 1e-307 0.0 
-5.93901e-77 4.73875e-78 0.0 
-7.63889e-263 -4.86117e-264 0.0 
-3.19447e-26 1.3007e-27 0.0 
0.495345 0.236417 0.0 
-2.55171e-34 2.9338e-35 0.0 
0.00716425 -0.000113777 0.0 
0.00264513 -0.000461913 0.0 
0.884135 -0.0145819 0.0 
0.115067 0.00495944 0.0 
1.00774 -2.16103e-265 0.0 
1.01051 0.00755979 0.0 
0.998869 -0.000145857 0.0 
0.0231879 -0.0095528 0.0 
1.12177e-05 8.89079e-07 0.0 
0 0 0.0 
0.000525752 -2.49811e-05 0.0 
0 0 0.0 
0.115082 0.140886 0.0 
0.0234332 -0.00447943 0.0 
0.0554354 -0.0169894 0.0 
0.00424758 -0.000524125 0.0 
0.00368561 0.000629732 0.0 
0.0656211 0.0107429 0.0 
0.00463225 -0.000673249 0.0 
1.00056 -0.000237684 0.0 
1.00973 0.000905944 0.0 
1.00388 0.00268788 0.0 
0.0408742 -0.000207122 0.0 
0.676615 0.000800645 0.0 
-4.62473e-241 -1.22569e-242 0.0 
0.906552 -0.391457 0.0 
1.00772 0.000143843 0.0 
0.838649 -0.332123 0.0 
0.121391 0.0109876 0.0 
0 0 0.0 
1.15134e-05 -1.1234e-07 0.0 
1.01511 0.00243186 0.0 
0.0795344 0.0149475 0.0 
0.784603 -0.277502 0.0 
1.00005 0.00266704 0.0 
0.079448 -0.0183618 0.0 
0.000825077 1.57161e-05 0.0 
0.0291397 0.00913281 0.0 
0.155779 0.0223858 0.0 
0.222485 -0.0132438 0.0 
0.000103352 9.24799e-06 0.0 
0.0104664 -0.00115578 0.0 
2.09149e-143 4.98774e-144 0.0 
2.49338e-05 -1.50196e-06 0.0 
1.08988 -0.0454173 0.0 
1.08818 0.1104 0.0 
0.837205 -0.419647 0.0 
2.66455e-125 5.43299e-126 0.0 
0.15301 -0.0398555 0.0 
0.836373 -0.418555 0.0 
0.972071 0.0386142 0.0 
0.0481324 -0.0167467 0.0 
0.924228 -0.280614 0.0 
1.00117 -0.00175954 0.0 
0.999953 0.00142922 0.0 
0.999616 -0.000484121 0.0 
1.0043 0 0.0 
4.59277e-09 -2.70402e-10 0.0 
0.0480626 0.00079339 0.0 
0.0360409 -0.00635348 0.0 
0.979693 0.197435 0.0 
0.999985 -0.000596764 0.0 
1.03534e-06 4.11534e-07 0.0 
0.5718 0.0111966 0.0 
0.653539 -0.35323 0.0 
1.0155 -0.00100662 0.0 
0.13035 -0.0199563 0.0 
0.124088 0.0200953 0.0 
0.00533166 0.00038861 0.0 
1.00738 0.000639016 0.0 
0.999907 -0.000717215 0.0 
0.000130841 1.65367e-05 0.0 
0.910168 -0.0270985 0.0 
0.906237 0.226149 0.0 
0 0 0.0 
0.516673 -0.0777491 0.0 
0.0474239 -0.000488921 0.0 
1.11815 0.13981 0.0 
1.00425 -0.00414438 0.0 
-2.94657e-250 -1.89446e-251 0.0 
0.651436 0.0298576 0.0 
0.8395 0.14775 0.0 
0.203893 0.0245086 0.0 
0.0154887 -6.82993e-05 0.0 
0.555805 -0.0393989 0.0 
2.32073e-132 2.122e-132 0.0 
-8.23923e-14 6.42407e-15 0.0 
0.568383 -0.0642154 0.0 
0.140925 0.00395245 0.0 
0.0901924 0.0179665 0.0 
0.163256 -0.0587124 0.0 
1.08401 -0.0421971 0.0 
0.210375 0.0963865 0.0 
1.009 0.000158045 0.0 
0.0115109 0.000729402 0.0 
0.567972 0.00568203 0.0 
-4.1481e-47 -1.34163e-48 0.0 
-9.87231e-35 -1.18734e-35 0.0 
0.96542 -0.00394908 0.0 
1.00854 0.000245625 0.0 
1.11685 0.0979363 0.0 
0.0309638 0.0532274 0.0 
0.142234 0.0638007 0.0 
0.252393 0.138767 0.0 
1.00805 0.000153976 0.0 
0.99921 -0.0015644 0.0 
0.0629472 0.00303629 0.0 
0.886254 -0.200506 0.0 
0.108469 0.0293615 0.0 
-1.54007e-163 -1.72262e-163 0.0 
0.0966077 0.0158668 0.0 
0.089977 0.00421371 0.0 
0.785518 -0.000329135 0.0 
4.3657e-07 -2.59176e-07 0.0 
0.0121172 0.000365485 0.0 
0.0802058 -0.0121834 0.0 
0 0 0.0 
1.00907 -0.00131264 0.0 
0.345279 0.0195329 0.0 
1.00818 0.00013333 0.0 
0.700946 -0.0386557 0.0 
1.00418 0.233911 0.0 
0.967991 -0.0247219 0.0 
1.00707 -0.000282465 0.0 
0 0 0.0 
0.0200493 0.000223916 0.0 
0.00422256 0.000636313 0.0 
0.0573174 0.00969591 0.0 
0.0507846 0.0817387 0.0 
1.00903 -0.00696479 0.0 
-2.3888e-270 -2.65223e-271 0.0 
0 0 0.0 
0.755011 0.349424 0.0 
0.258253 0.128918 0.0 
-1.97172e-173 -1.02722e-173 0.0 
1.05173 -0.0487847 0.0 
0.0119222 0.000578867 0.0 
0.695526 0.0673818 0.0 
0.999686 -0.00197899 0.0 
0.875528 0.328183 0.0 
0.00101943 -0.000177461 0.0 
1.00231 0.00490261 0.0 
0.696219 -0.338792 0.0 
0.00466488 0.000385572 0.0 
-1.38374e-17 4.13138e-19 0.0 
1.00678 0.00330542 0.0 
1.00924 -0.000968278 0.0 
1.00838 0.000411375 0.0 
1.04594 -0.0400479 0.0 
1.00246 -0.00052966 0.0 
9.39988e-05 1.98293e-05 0.0 
0.28282 0.00230314 0.0 
1.00845 0.000220447 0.0 
3.33108e-05 8.04038e-06 0.0 
0.0415724 -0.0152264 0.0 
0.780483 -0.323264 0.0 
0.964838 0.285591 0.0 
0.109934 -0.0243159 0.0 
0.0110009 -0.00297601 0.0 
1.00001 -0.000180348 0.0 
0.0882264 -0.0179789 0.0 
0.286871 -0.0283486 0.0 
1.65088e-08 3.95788e-09 0.0 
0.926011 0.00155185 0.0 
0.0990109 0.00576047 0.0 
1.00011 -0.00153833 0.0 
0.767805 -0.417436 0.0 
0.998792 -0.00405385 0.0 
0.0215794 0.00705305 0.0 
1.01035 -0.00263376 0.0 
0.977533 -0.0405621 0.0 
0.0233844 -0.0014969 0.0 
-2.20091e-14 2.4306e-15 0.0 
0.403751 -0.243569 0.0 
0.633466 -0.0261549 0.0 
0.85942 -0.183307 0.0 
0.239098 0.00282156 0.0 
0 0 0.0 
-1.55107e-279 -9.95757e-281 0.0 
-8.83918e-16 -3.3166e-17 0.0 
0.154031 0.0446177 0.0 
0.745255 -0.0450992 0.0 
0.683063 0.3669 0.0 
-2.43304e-22 4.09038e-24 0.0 
0.999996 -0.000174508 0.0 
0.630709 -0.26202 0.0 
-1.04969e-183 4.06593e-184 0.0 
0.965486 -0.00276839 0.0 
1.00773 0.000119807 0.0 
1.02257 -0.00379912 0.0 
0 0 0.0 
1 0 0.0 
0.214236 0.00557362 0.0 
0.108308 -0.0200846 0.0 
0.898362 0.0828555 0.0 
6.73647e-05 -6.68677e-06 0.0 
0.803796 -0.440053 0.0 
1.01168 -0.0009499 0.0 
1.00717 -0.000141165 0.0 
0.0992726 -0.0347044 0.0 
1.00754 -0.0314842 0.0 
0.0628436 0.000969428 0.0 
0.963544 -0.00614076 0.0 
0.0106699 0.000968171 0.0 
0.984857 0.0347095 0.0 
0.0046113 -0.000369088 0.0 