<VTKFile type="UnstructuredGrid" version="0.1" byte_order="LittleEndian">
  <UnstructuredGrid>
    <Piece NumberOfPoints="13075" NumberOfCells="25989">
      <Points>
        <DataArray type = "Float64" NumberOfComponents="3" format="ascii">
0 0 0.0 
14 0 0.0 
14 8 0.0 
0 8 0.0 
4.16782 4.09801 0.0 
4.42657 3.9674 0.0 
4.97178 4.13886 0.0 
4.86404 4.02978 0.0 
4.15128 3.96502 0.0 
4.09208 3.95602 0.0 
4.06903 3.98443 0.0 
4.33592 4.0755 0.0 
4.80816 3.99011 0.0 
12.0984 8 0.0 
4.30762 4.07106 0.0 
4.04003 3.97377 0.0 
3.96554 4.00011 0.0 
4.08008 3.9656 0.0 
4.22222 3.96055 0.0 
4.42892 3.97244 0.0 
4.31041 3.96961 0.0 
4.82446 4.05237 0.0 
4.01323 3.99894 0.0 
4.39858 4.09392 0.0 
4.25007 4.10489 0.0 
7.69985 0 0.0 
3.92866 4.03401 0.0 
5.05798 4 0.0 
4.37177 4.07717 0.0 
4.00962 4.08349 0.0 
3.99053 4.00403 0.0 
4.1505 4.05937 0.0 
5.00323 4.00395 0.0 
4.26548 4.05787 0.0 
3.87131 4.12117 0.0 
4.46599 4.06701 0.0 
4.01757 4.01026 0.0 
4.13389 3.95714 0.0 
4.32969 3.96791 0.0 
4.17759 3.97818 0.0 
6.14853 4.04566 0.0 
4.09533 4.03459 0.0 
4.00922 3.99881 0.0 
4.5211 3.97659 0.0 
4.72882 4.06867 0.0 
4.9201 3.99401 0.0 
4.36731 4.05544 0.0 
4.20806 3.97536 0.0 
4.24422 4.06596 0.0 
5.16321 3.91641 0.0 
3.93682 3.99751 0.0 
4.11094 4.03801 0.0 
4.84945 4.02591 0.0 
4.01965 4.03223 0.0 
4.19353 4.07857 0.0 
3.97661 4.05846 0.0 
4.66831 4.06215 0.0 
4.0152 4.00142 0.0 
4.01744 4.0121 0.0 
4.50242 4.06312 0.0 
4.00131 4.01063 0.0 
4.39153 3.97191 0.0 
4.03059 3.99519 0.0 
4.3234 4.07129 0.0 
4.4144 3.94094 0.0 
4.50025 3.97526 0.0 
2.53508 4.64206 0.0 
4.45715 3.97255 0.0 
6.3541 2.45871 0.0 
4.14792 4.06811 0.0 
4.96507 4.02144 0.0 
4.46187 4.06562 0.0 
4.38923 4.13625 0.0 
4.01647 3.99236 0.0 
4.00304 4.00993 0.0 
4.15949 4.05931 0.0 
4.83483 4.04525 0.0 
3.94576 4.12556 0.0 
4.02948 4.02946 0.0 
4.91624 4.01691 0.0 
0 6.15459 0.0 
4.0192 3.99331 0.0 
4.29226 4.09769 0.0 
4.15458 4.07956 0.0 
4.97524 4.02614 0.0 
4.17785 3.95317 0.0 
4.25889 4.07339 0.0 
5.00785 4.00312 0.0 
10.8833 7.73481 0.0 
4.16731 4.07557 0.0 
14 6.11123 0.0 
3.99013 3.94414 0.0 
3.99379 4.00703 0.0 
3.96293 3.99513 0.0 
4.4437 4.06875 0.0 
4.28592 3.95239 0.0 
4.04836 4.00644 0.0 
4.38567 4.08377 0.0 
8.18508 0.217596 0.0 
3.88293 4.06948 0.0 
4.52431 3.97563 0.0 
4.23787 4.08599 0.0 
7.01405 4.29566 0.0 
4.06519 4.02486 0.0 
4.16625 4.06136 0.0 
5.03684 4.01469 0.0 
4.2715 3.93932 0.0 
4.20435 4.06372 0.0 
4.63785 4.0534 0.0 
10.8355 3.51217 0.0 
4.31051 4.0737 0.0 
5.01049 4.01163 0.0 
4.08903 3.97135 0.0 
14 5.21618 0.0 
4.80215 4.0321 0.0 
4.38708 3.97084 0.0 
4.25641 4.04704 0.0 
4.28749 4.07809 0.0 
3.94943 3.96456 0.0 
4.20462 3.96777 0.0 
4.3632 3.95592 0.0 
4.91606 3.92612 0.0 
4.70852 3.82365 0.0 
5.1967 4.14368 0.0 
4.57406 4.05712 0.0 
3.8607 3.6925 0.0 
4.97959 4.00665 0.0 
4.95367 3.99667 0.0 
4.64482 3.98091 0.0 
4.06328 4.03892 0.0 
4.81007 4.01091 0.0 
4.02669 4.10937 0.0 
4.27301 4.09229 0.0 
3.05817 4.59047 0.0 
4.81837 4.03198 0.0 
4.34569 4.08404 0.0 
4.61408 3.98055 0.0 
4.37798 8 0.0 
4.12623 4.0709 0.0 
4.08373 4.05666 0.0 
4.09568 4.05562 0.0 
4.21025 3.93615 0.0 
4.62072 3.96435 0.0 
4.27852 0 0.0 
5.04845 4.04311 0.0 
4.29262 4.07791 0.0 
4.05286 3.93495 0.0 
4.2924 4.03852 0.0 
4.0272 3.96683 0.0 
3.68336 1.80588 0.0 
4.63465 3.98165 0.0 
4.2889 4.06302 0.0 
4.59486 4.05663 0.0 
4.70266 8 0.0 
4.92017 4.0164 0.0 
4.19767 3.93669 0.0 
4.19306 3.95079 0.0 
4.45223 3.97201 0.0 
4.13425 4.07811 0.0 
4.07401 3.9833 0.0 
4.58126 4.05048 0.0 
4.88294 4.00718 0.0 
5.11295 3.90338 0.0 
4.1741 4.07586 0.0 
5.52848 3.9742 0.0 
4.20141 4.06382 0.0 
4.89032 4.03847 0.0 
4.2218 3.94603 0.0 
4.22107 3.98359 0.0 
4.0339 4.05256 0.0 
4.51519 4.08591 0.0 
4.56393 3.97815 0.0 
3.91267 2.38613 0.0 
4.02873 4.0411 0.0 
4.53222 3.93526 0.0 
4.29787 4.08601 0.0 
4.08859 4.05676 0.0 
4.8216 4.01421 0.0 
4.30615 3.96016 0.0 
9.45156 3.04016 0.0 
4.12124 3.98374 0.0 
4.02077 4.02206 0.0 
4.00418 4.00381 0.0 
4.08226 3.93581 0.0 
4.17912 4.05461 0.0 
4.00327 3.99438 0.0 
4.24743 3.99271 0.0 
4.0111 3.92417 0.0 
4.99458 4.03862 0.0 
3.87644 4.36411 0.0 
4.2846 3.96684 0.0 
4.01981 4.06914 0.0 
4.1829 4.06659 0.0 
4.12635 4.07409 0.0 
0 1.4212 0.0 
5.07027 3.97669 0.0 
4.8762 4.04179 0.0 
4.18679 4.08465 0.0 
4.48634 4.06578 0.0 
4.07858 3.96721 0.0 
3.4892 4.85132 0.0 
4.76575 4.04742 0.0 
4.89386 4.01981 0.0 
4.25777 4.07923 0.0 
4.9908 4.01037 0.0 
4.27039 4.07656 0.0 
4.0644 3.93891 0.0 
4.04195 3.99898 0.0 
4.16503 4.11076 0.0 
4.92668 3.99361 0.0 
5.0519 3.95779 0.0 
4.04713 3.9767 0.0 
4.19206 3.91938 0.0 
4.69868 3.97813 0.0 
3.96023 4.01528 0.0 
4.09641 3.95124 0.0 
4.12454 3.92729 0.0 
4.07499 3.95628 0.0 
4.08491 4.0641 0.0 
3.96293 4.03138 0.0 
4.47346 4.11408 0.0 
4.06298 3.99231 0.0 
5.07958 3.96532 0.0 
4.14524 3.96689 0.0 
4.21515 3.98039 0.0 
4.21125 3.95113 0.0 
3.99252 4.00665 0.0 
4.28982 4.04295 0.0 
4.17636 4.06982 0.0 
4.01378 4.004 0.0 
13.3549 8 0.0 
3.94066 3.96869 0.0 
4.92722 4.01391 0.0 
3.95819 3.97698 0.0 
4.48725 4.06432 0.0 
4.33343 4.1967 0.0 
4.23165 4.07938 0.0 
4.54783 4.09596 0.0 
4.15636 4.04974 0.0 
3.95778 3.98461 0.0 
4.84972 4.0658 0.0 
3.9419 3.97853 0.0 
4.61934 3.95726 0.0 
4.19018 4.05306 0.0 
4.10081 3.94382 0.0 
4.62662 3.98139 0.0 
4.69463 4.07217 0.0 
3.99969 4.00096 0.0 
4.76104 3.98628 0.0 
4.03285 3.98036 0.0 
4.62897 4.05386 0.0 
4.22913 4.08121 0.0 
5.00368 4.02219 0.0 
4.03476 4.04592 0.0 
3.9771 4.03148 0.0 
3.99922 3.99464 0.0 
4.09033 4.05486 0.0 
4.18715 4.07563 0.0 
4.15561 4.10177 0.0 
4.18309 4.12442 0.0 
3.96476 4.03852 0.0 
4.20758 4.05475 0.0 
3.94556 3.88588 0.0 
4.17168 4.03852 0.0 
4.93242 4.01306 0.0 
3.96822 4.02719 0.0 
3.97233 4.04194 0.0 
3.98573 3.91699 0.0 
4.61799 3.98032 0.0 
3.91833 4.06784 0.0 
4.39564 4.08373 0.0 
4.089 3.96007 0.0 
4.20876 3.92492 0.0 
3.92251 4.00785 0.0 
4.59088 4.05775 0.0 
4.66179 3.98291 0.0 
7.43111 3.9603 0.0 
6.02651 0 0.0 
4.02651 3.98657 0.0 
4.14977 4.08638 0.0 
4.23464 3.95934 0.0 
4.30853 4.04246 0.0 
4.3527 4.06185 0.0 
4.09189 3.97005 0.0 
3.94564 3.99975 0.0 
4.06234 3.9498 0.0 
4.05766 4.0874 0.0 
4.88044 0 0.0 
4.02815 4.04832 0.0 
5.0401 4.02083 0.0 
4.98371 4.01321 0.0 
4.03678 4.03053 0.0 
4.43489 3.99405 0.0 
4.52064 4.08001 0.0 
4.78198 3.90361 0.0 
4.48141 4.10725 0.0 
4.87255 4.0231 0.0 
11.7013 4.10211 0.0 
4.23352 4.06613 0.0 
4.76252 3.98687 0.0 
4.66888 4.04755 0.0 
4.1384 3.95607 0.0 
4.96073 3.99642 0.0 
4.51779 3.95325 0.0 
4.5533 4.04791 0.0 
4.19265 4.06116 0.0 
4.36894 4.08372 0.0 
11.1649 5.54318 0.0 
4.96517 4.00624 0.0 
4.05408 3.9411 0.0 
4.35853 3.94109 0.0 
4.02341 4.03456 0.0 
4.78872 4.02658 0.0 
4.52724 7.41561 0.0 
5.05919 4.01855 0.0 
6.19514 4.3008 0.0 
4.55513 4.04031 0.0 
0.28507 1.30676 0.0 
0.197926 0 0.0 
4.71545 4.01283 0.0 
4.14581 4.04395 0.0 
4.68906 3.98123 0.0 
4.20618 4.06561 0.0 
5.00671 4.01055 0.0 
4.85064 3.99105 0.0 
4.4533 4.10078 0.0 
4.25807 4.05754 0.0 
4.35117 4.08274 0.0 
4.92944 3.9605 0.0 
1.24078 0.550265 0.0 
4.04827 4.04997 0.0 
4.14647 3.96536 0.0 
4.36198 4.05276 0.0 
2.38032 0.204862 0.0 
4.05684 3.92884 0.0 
9.1005 7.43296 0.0 
4.06104 4.09886 0.0 
4.8117 3.98876 0.0 
4.02994 3.96774 0.0 
4.35296 3.94585 0.0 
4.76978 4.05108 0.0 
4.0062 4.04545 0.0 
4.01517 4.03055 0.0 
4.26022 3.94165 0.0 
4.27424 3.95525 0.0 
4.89359 3.99361 0.0 
5.11233 0.94049 0.0 
4.02246 4.02836 0.0 
4.00048 4.01062 0.0 
3.99908 3.98836 0.0 
5.14793 4.17318 0.0 
4.12151 3.94609 0.0 
4.78076 3.9621 0.0 
4.86463 4.02634 0.0 
7.38378 7.01513 0.0 
4.79907 3.98946 0.0 
4.82085 4.03185 0.0 
4.27546 4.05009 0.0 
4.97222 4.02124 0.0 
5.115 3.92031 0.0 
4.12673 3.95742 0.0 
5.01694 4.10765 0.0 
4.35005 4.09252 0.0 
4.2163 3.94824 0.0 
7.31177 0.840293 0.0 
4.22957 3.95099 0.0 
4.46901 4.06548 0.0 
3.99651 4.05409 0.0 
5.1327 4.04445 0.0 
4.04894 3.98467 0.0 
4.36705 4.07889 0.0 
5.35198 3.77266 0.0 
4.22022 4.06723 0.0 
4.40824 3.97158 0.0 
4.34859 4.05902 0.0 
4.78562 3.9884 0.0 
9.56342 4.86409 0.0 
4.81693 4.05687 0.0 
4.12408 3.94161 0.0 
4.91787 4.01518 0.0 
4.26212 3.94558 0.0 
4.30181 4.08029 0.0 
4.32259 3.94072 0.0 
5.05373 3.98335 0.0 
3.92924 4.17117 0.0 
4.01706 3.99618 0.0 
3.93749 4.02683 0.0 
4.38753 3.97026 0.0 
4.02428 4.03941 0.0 
4.66775 4.07119 0.0 
4.63279 3.98077 0.0 
5.42008 4.06191 0.0 
4.41131 4.05012 0.0 
3.85704 3.89698 0.0 
4.0008 3.98691 0.0 
12.1222 6.79508 0.0 
4.06103 3.9941 0.0 
4.00051 3.91421 0.0 
3.78538 2.9635 0.0 
4.255 4.06008 0.0 
4.39428 4.0351 0.0 
4.51983 4.11882 0.0 
4.6688 3.98156 0.0 
4.81893 4.03263 0.0 
4.97625 4.00514 0.0 
4.30661 4.08755 0.0 
4.30211 3.98484 0.0 
9.91842 3.0844 0.0 
4.17983 4.0788 0.0 
4.03334 3.9775 0.0 
3.97807 4.03955 0.0 
4.9366 4.07803 0.0 
4.2489 4.09629 0.0 
5.06347 3.99507 0.0 
3.91035 3.9607 0.0 
4.2295 4.0772 0.0 
4.32398 4.05563 0.0 
5.08198 4.04957 0.0 
4.43865 4.1071 0.0 
5.02947 4.00625 0.0 
5.01528 4.01133 0.0 
4.57243 3.99171 0.0 
4.9434 5.59544 0.0 
11.036 5.31006 0.0 
4.22852 4.07134 0.0 
6.91256 3.08935 0.0 
4.96423 3.98795 0.0 
2.80043 7.58706 0.0 
2.9308 8 0.0 
4.79826 4.04689 0.0 
4.07195 3.97229 0.0 
3.99883 4.01382 0.0 
4.91923 3.99292 0.0 
3.99014 3.98454 0.0 
4.08942 3.95104 0.0 
4.06552 4.04412 0.0 
5.05874 3.96884 0.0 
4.25898 4.13439 0.0 
4.01165 4.04753 0.0 
6.24865 4.08448 0.0 
4.80616 4.03385 0.0 
4.20227 4.08039 0.0 
4.23985 4.08128 0.0 
4.5398 4.10353 0.0 
4.32662 3.96763 0.0 
4.33218 4.06749 0.0 
4.10203 3.95404 0.0 
10.8039 4.54212 0.0 
3.99752 4.02893 0.0 
4.45966 3.97278 0.0 
4.26259 4.0847 0.0 
4.15582 4.07076 0.0 
4.02388 3.9868 0.0 
4.2457 4.05438 0.0 
4.64762 3.98181 0.0 
3.99622 4.0615 0.0 
4.98043 4.0054 0.0 
7.69612 2.66902 0.0 
4.42943 4.11978 0.0 
4.01204 4.00974 0.0 
4.35611 4.1398 0.0 
4.0089 4.00797 0.0 
4.24629 4.08892 0.0 
4.1343 4.04717 0.0 
4.00044 3.99614 0.0 
4.08637 3.98671 0.0 
8.1554 7.24604 0.0 
4.34634 4.12041 0.0 
4.00432 3.99827 0.0 
4.70791 4.04425 0.0 
4.07233 3.96127 0.0 
3.13244 3.54818 0.0 
3.77211 5.32337 0.0 
4.8722 4.05404 0.0 
4.88683 4.02122 0.0 
[...]
<PointData>
  <DataArray type = "Float64" Name="Vitesse" NumberOfComponents="3" format="ascii">
1 0 0.0 
1.00023 0 0.0 
0.999848 0 0.0 
1 0 0.0 
1.03235 0.172781 0.0 
0.0747538 0.00285318 0.0 
0.951096 -0.0555154 0.0 
0.0264842 -0.00365275 0.0 
0.0938009 -0.00421322 0.0 
0.622332 -0.0817122 0.0 
0 0 0.0 
0.157223 0.00311081 0.0 
3.7387e-05 3.54761e-06 0.0 
0.999881 0 0.0 
0.0663379 0.00237003 0.0 
0.300699 -0.0730123 0.0 
0.646901 -0.0589365 0.0 
0.310918 -0.041919 0.0 
0.160216 -0.00035664 0.0 
0.00603748 0.00078171 0.0 
0.000177179 1.16156e-05 0.0 
0.149282 -0.015583 0.0 
0 0 0.0 
0.519683 0.00440189 0.0 
0.952169 0.0977993 0.0 
1.00455 0 0.0 
0.794636 0.043814 0.0 
0.10041 0.00708566 0.0 
0.181204 0.000699185 0.0 
0.882002 0.243936 0.0 
0.320605 -0.0373028 0.0 
0.11849 0.0192549 0.0 
0.0173201 -0.00935086 0.0 
-4.44221e-44 -2.44692e-45 0.0 
0.906234 0.0665669 0.0 
0.027749 -0.00207073 0.0 
0 0 0.0 
0.383917 -0.0274849 0.0 
0.0287381 0.00134866 0.0 
0 0 0.0 
0.687568 -0.0219053 0.0 
0 0 0.0 
0 0 0.0 
2.49956e-13 2.19697e-14 0.0 
0.239015 -0.0205016 0.0 
0.0127364 0.000949054 0.0 
0 0 0.0 
5.66985e-171 1.18295e-172 0.0 
0.000115814 1.00231e-05 0.0 
0.768767 0.0360421 0.0 
0.764291 -0.0390982 0.0 
0 0 0.0 
2.6911e-05 -3.54691e-06 0.0 
0.595164 0.310124 0.0 
0.573566 0.0736057 0.0 
0.781522 0.184471 0.0 
0.124012 -0.0107617 0.0 
0 0 0.0 
0 0 0.0 
6.35463e-06 -4.57939e-07 0.0 
0.144295 0.169457 0.0 
4.24564e-14 2.17093e-15 0.0 
0 0 0.0 
0.0616576 0.00371333 0.0 
0.483007 0.00542807 0.0 
0.00647016 0.000728322 0.0 
0.995969 0.00603231 0.0 
0.0180952 0.000676624 0.0 
1.01178 0.00615024 0.0 
0.481541 0.0808753 0.0 
0.0460158 -0.0068356 0.0 
0.00059786 -2.34033e-05 0.0 
1.0764 0.0441802 0.0 
0 0 0.0 
0.0429644 0.0647858 0.0 
0.0594181 0.00534108 0.0 
0.100727 -0.0113552 0.0 
0.899993 0.12438 0.0 
0.216565 0.0999773 0.0 
0.00478342 -0.000643712 0.0 
1 0 0.0 
0 0 0.0 
0.742571 0.0506379 0.0 
0.788803 0.135336 0.0 
0.0739199 -0.0110915 0.0 
0.395477 -0.0166933 0.0 
0.19985 0.0129607 0.0 
0.025762 -0.0045432 0.0 
1.00001 -5.9394e-05 0.0 
0.611985 0.091368 0.0 
0.999862 1.37025e-05 0.0 
0.876177 -0.252454 0.0 
0.253555 0.0701336 0.0 
0.671922 -0.0825794 0.0 
0.0394647 -0.0011921 0.0 
0.311278 -1.88428e-05 0.0 
0 0 0.0 
0.318229 -0.000229653 0.0 
1.00371 0.000368663 0.0 
0.870888 0.0498157 0.0 
0.0115368 0.000822835 0.0 
0.611755 0.0583215 0.0 
0.959551 -0.0408558 0.0 
0 0 0.0 
0.110743 0.00949921 0.0 
0.0673908 -0.00968664 0.0 
0.587849 -0.0109121 0.0 
0.0345017 0.0014421 0.0 
0.0133409 -0.00155976 0.0 
0.999647 0.000724554 0.0 
0.132111 0.00324443 0.0 
0.0369112 -0.0141972 0.0 
2.0852e-13 -7.03739e-15 0.0 
0.999891 4.40457e-05 0.0 
1.25108e-05 -1.21524e-06 0.0 
0.00971856 0.000437015 0.0 
0 0 0.0 
0.276769 0.0112208 0.0 
0.795174 -0.131357 0.0 
0.000384898 3.53554e-06 0.0 
0.236574 0.00418621 0.0 
0.676172 0.0245168 0.0 
1.06297 0.00509028 0.0 
0.955968 -0.0512541 0.0 
2.12201e-14 -4.84383e-16 0.0 
0.980918 -0.0560655 0.0 
0.00470401 -0.00085353 0.0 
0.00518542 0.000137435 0.0 
0.0126631 0.000849927 0.0 
3.01236e-07 6.03861e-08 0.0 
4.68031e-209 -5.10856e-210 0.0 
0.941483 0.223804 0.0 
0.669508 0.0511702 0.0 
0.991425 0.0112297 0.0 
0.00858077 -0.000734762 0.0 
0.350811 0.00740928 0.0 
7.6271e-20 9.00674e-21 0.0 
1.00754 0 0.0 
0.721491 0.145116 0.0 
0.614611 0.164541 0.0 
0.440545 0.108148 0.0 
0.743371 -0.0360916 0.0 
0.189542 0.00756276 0.0 
1.00619 0 0.0 
0.216611 -0.0284455 0.0 
0.262288 0.0112048 0.0 
1.05585 -0.245714 0.0 
-8.68902e-194 7.12713e-196 0.0 
0.856082 -0.305069 0.0 
1.00568 -0.00576426 0.0 
2.68261e-05 3.76766e-06 0.0 
-4.33937e-86 -2.8108e-87 0.0 
0.00810831 -0.000394897 0.0 
1.0079 0 0.0 
0.00510715 -0.000842142 0.0 
0.75787 -0.0414087 0.0 
0.431855 -0.0151084 0.0 
0.0235635 0.000436896 0.0 
0.855289 0.169025 0.0 
0 0 0.0 
-2.46596e-53 9.46516e-55 0.0 
2.06164e-98 -1.84757e-99 0.0 
0.848489 0.0369661 0.0 
0.584891 0.0831277 0.0 
0.476283 0.0186966 0.0 
0.0446857 0.00179283 0.0 
0.0919376 -0.0110201 0.0 
0.50391 -0.0140137 0.0 
0 0 0.0 
0.869007 0.34694 0.0 
0.353959 -0.0132469 0.0 
7.27512e-05 8.79596e-06 0.0 
1.0077 -0.00956165 0.0 
0.735775 0.331271 0.0 
0.552722 0.0100736 0.0 
0.463959 0.0245969 0.0 
0.563867 0.146123 0.0 
-3.282e-148 1.98475e-149 0.0 
0.158143 0.00256361 0.0 
0.999683 0.00200072 0.0 
0 0 0.0 
-4.69675e-36 -2.35362e-36 0.0 
1e-307 1e-307 0.0 
1.06301 -0.192943 0.0 
0 0 0.0 
-5.80086e-117 2.76802e-117 0.0 
0 0 0.0 
0.958316 -0.236861 0.0 
0.158918 -0.0226193 0.0 
0.984038 0.0627647 0.0 
0.0335766 -5.35165e-05 0.0 
0.878942 0.293205 0.0 
0.22458 0.0264147 0.0 
0.805677 0.165297 0.0 
1 0 0.0 
0.247891 0.0240137 0.0 
0.104658 -0.0123042 0.0 
0.764746 0.107221 0.0 
0.0233626 -0.00101406 0.0 
0.246154 -0.0334941 0.0 
0.998415 0.020511 0.0 
0.0672534 -0.00725283 0.0 
0.00275487 -0.000294111 0.0 
0.371785 0.0276135 0.0 
0.0215688 -0.00563329 0.0 
0.266963 0.0157073 0.0 
1.06143 -0.228073 0.0 
0 0 0.0 
1.09352 0.185155 0.0 
0.0192512 0.000876702 0.0 
0.410508 0.0323071 0.0 
2.20179e-10 -2.52658e-11 0.0 
1.01959 -0.0780144 0.0 
0.0681181 0.0030541 0.0 
0.679111 0.0249223 0.0 
0.753731 -0.101962 0.0 
1.05506 -0.134685 0.0 
0.734461 -0.127737 0.0 
0.828413 0.226755 0.0 
0.707712 0.0960879 0.0 
0.81091 -0.000691762 0.0 
0 0 0.0 
0.349708 0.0287428 0.0 
0.0453421 -0.00279397 0.0 
1e-307 0 0.0 
0.395395 -0.00978216 0.0 
0.283781 0.0461963 0.0 
-9.06694e-196 7.43712e-198 0.0 
0.374029 0.0481747 0.0 
0 0 0.0 
0.999851 0 0.0 
0.798336 -0.106297 0.0 
0.00136515 -0.000196931 0.0 
0.743626 -0.135325 0.0 
7.56071e-06 -1.75891e-07 0.0 
1.12035 0.0735407 0.0 
0.449795 0.0415313 0.0 
0.520217 -0.0184423 0.0 
0 0 0.0 
0.720922 -0.112713 0.0 
0.291181 -0.0268159 0.0 
0.776166 -0.0911735 0.0 
0.275742 0.0100953 0.0 
0 0 0.0 
0.915771 -0.13146 0.0 
8.57295e-06 1.07815e-06 0.0 
0.255632 -0.0201193 0.0 
0.00560188 -0.0351488 0.0 
0.0135073 0.00114846 0.0 
1.49095e-11 -3.63928e-12 0.0 
0.00905172 -0.000928686 0.0 
0.510449 0.0493204 0.0 
0.0697328 -0.0183568 0.0 
0.789592 0.327044 0.0 
0.662651 0.155305 0.0 
0.19843 -0.294593 0.0 
0.465045 0.118598 0.0 
0.512837 0.0670949 0.0 
1.06977 0.191837 0.0 
1.10836 0.168155 0.0 
0.725055 0.12143 0.0 
0 0 0.0 
0.924966 -0.126401 0.0 
0 0 0.0 
0.00137087 -0.000155529 0.0 
0.674505 0.0995428 0.0 
0.722616 0.156093 0.0 
0.919964 -0.195268 0.0 
0.00482432 0.000541372 0.0 
0.842794 0.0759119 0.0 
0.312475 -0.0012736 0.0 
0.487908 -0.0607803 0.0 
0.93466 -0.0573495 0.0 
0.793845 -0.0105524 0.0 
0.0150366 -0.00186069 0.0 
0.000120721 5.68032e-06 0.0 
0.921968 0.0156313 0.0 
1.00707 0 0.0 
-2.90422e-100 1.14351e-100 0.0 
0.942585 0.171954 0.0 
0.182042 0.000401416 0.0 
-3.57216e-192 2.93005e-194 0.0 
-9.31174e-126 -1.31137e-127 0.0 
0.0444579 -0.00150042 0.0 
0.737278 -0.0394309 0.0 
0.978148 -0.213238 0.0 
0.984918 0.278153 0.0 
1.0071 0 0.0 
0.837504 0.357201 0.0 
0.0857742 -0.0147417 0.0 
0.0255834 -0.00513387 0.0 
0.0594004 0.022788 0.0 
1.92405e-155 1.36871e-156 0.0 
0.260286 -0.0118584 0.0 
0.856306 0.0193728 0.0 
0.708059 -0.00564564 0.0 
0.00345165 -0.000415373 0.0 
0.999724 0.000331472 0.0 
0.0398637 0.00339148 0.0 
0.00872732 0.000774573 0.0 
5.88709e-15 -4.55824e-16 0.0 
0.404964 -0.0276443 0.0 
0.00815219 0.000515227 0.0 
0.302358 0.00835219 0.0 
0 0 0.0 
8.21894e-06 6.13371e-07 0.0 
0.326211 0.00334477 0.0 
0.99958 -4.10824e-05 0.0 
5.79142e-21 -6.52711e-22 0.0 
1.05481 -0.250496 0.0 
0.495456 0.00194085 0.0 
0.613685 0.305059 0.0 
-1.27006e-67 8.80547e-69 0.0 
1.00809 0.000738622 0.0 
0.0955371 -0.0101238 0.0 
1.00679 0.0036208 0.0 
0 0 0.0 
1.00001 -0.000199815 0.0 
1.00002 0 0.0 
0 0 0.0 
0 0 0.0 
0.031546 0.0017981 0.0 
0.0944265 0.00715809 0.0 
0.031924 -0.0143395 0.0 
0.0094934 0.000775867 0.0 
0.615242 -0.00352398 0.0 
3.88184e-99 3.70587e-100 0.0 
0.315676 0.00524309 0.0 
0.344592 0.0155462 0.0 
1.00046 -0.000426143 0.0 
0.771104 0.283501 0.0 
0.0897909 -0.00524844 0.0 
-1.19418e-175 9.79525e-178 0.0 
1.00187 -0.0003638 0.0 
1.05823 -0.230834 0.0 
1.0009 -0.000611144 0.0 
0.993099 0.256683 0.0 
0.0132286 0.000644049 0.0 
0.798031 -0.268033 0.0 
0.413303 0.00306113 0.0 
0.0990656 -0.0103401 0.0 
0.763379 0.327743 0.0 
0.606156 0.337516 0.0 
0.55227 -0.0108232 0.0 
0.25661 0.00058377 0.0 
0.00521082 0.000380546 0.0 
1.00815 -0.000596806 0.0 
0.360041 0.184488 0.0 
0.170539 0.18896 0.0 
0.479979 -0.446687 0.0 
1.01473 -0.0504636 0.0 
0.771651 -0.0834526 0.0 
0.272619 0.0112529 0.0 
0.0115577 -0.0016725 0.0 
1.00385 -0.00263068 0.0 
0.000156415 1.13599e-05 0.0 
0.00935063 -0.00129452 0.0 
0 0 0.0 
0.0491691 -0.00760023 0.0 
0.739998 0.0367087 0.0 
0.398126 -0.0307216 0.0 
0.767973 -0.0553033 0.0 
0.537077 0.0155162 0.0 
0.459332 -0.0124496 0.0 
1.00537 0.0016633 0.0 
0.377708 -0.00603719 0.0 
0.00882054 3.77023e-05 0.0 
0.778395 0.262614 0.0 
0.281575 -0.0258718 0.0 
-2.26839e-134 6.27823e-135 0.0 
0.220298 0.00143464 0.0 
1.01786 0.0259033 0.0 
0.105028 0.00862024 0.0 
0.0072504 0.000686199 0.0 
-5.78247e-128 -8.14346e-130 0.0 
0.0042862 0.000308086 0.0 
0.998395 -0.000167366 0.0 
0.183043 -0.0183415 0.0 
0.868772 -0.0977643 0.0 
4.62042e-05 -6.8868e-06 0.0 
0.467796 -0.00667644 0.0 
0.3127 0.0150996 0.0 
0.519671 -0.00202606 0.0 
0.186212 0.0215203 0.0 
0.932179 0.104612 0.0 
0 0 0.0 
0.769292 0.0372805 0.0 
0.0180202 0.000361922 0.0 
0.731446 0.347159 0.0 
0.22576 -0.017247 0.0 
0.00784346 0.000649181 0.0 
0.547006 -0.0270825 0.0 
-1.56068e-180 1.28014e-182 0.0 
0.915564 -0.0619482 0.0 
0.516075 -0.445114 0.0 
0.999823 -3.43632e-05 0.0 
0 0 0.0 
0.945953 -0.208051 0.0 
1.00535 -0.0183559 0.0 
0 0 0.0 
-5.99517e-183 4.91751e-185 0.0 
0.84921 -0.0094604 0.0 
0.0177552 0.000985212 0.0 
0.0122731 -0.00128116 0.0 
9.05162e-14 -6.08037e-15 0.0 
0.486737 0.0243773 0.0 
0 0 0.0 
0.999726 0.00147116 0.0 
0.642779 0.0905136 0.0 
0.161096 -0.0449787 0.0 
0.702278 0.177975 0.0 
0.467141 -0.0394174 0.0 
0.815092 0.0791126 0.0 
0.123805 0.0114349 0.0 
0.844922 -0.0725487 0.0 
0.392378 0.0357078 0.0 
0 0 0.0 
0.285309 -0.0317975 0.0 
0.729282 0.00347811 0.0 
0.0559821 -0.00190737 0.0 
0.0406247 -0.0121608 0.0 
-7.51622e-58 -7.05744e-59 0.0 
1.01761 0.000395571 0.0 
0.999505 7.48874e-07 0.0 
0.214133 0.0174634 0.0 
0.995195 0.0171498 0.0 
0.0910372 0.00468716 0.0 
1.00359 0.00113086 0.0 
1.00396 0 0.0 
0.0867985 -0.00985427 0.0 
0.0394487 -0.00267721 0.0 
0.311919 0.266348 0.0 
0.0225372 0.0013468 0.0 
0.594723 -0.346906 0.0 
0.801717 -0.120506 0.0 
0.294236 0.0813826 0.0 
0.31009 0.0284767 0.0 
1.12302 0.115888 0.0 
0.792556 0.341794 0.0 
0.772484 -0.0218263 0.0 
0.0102789 -0.00118345 0.0 
0.588692 0.0715477 0.0 
0.477957 0.0426197 0.0 
0.636384 -0.0171647 0.0 
0.0324177 0.00128153 0.0 
4.56277e-10 1.30833e-11 0.0 
0.630514 -0.0745761 0.0 
0.999379 0.00029597 0.0 
0.608985 0.315987 0.0 
0.0161733 0.000357511 0.0 
0.509088 0.0386136 0.0 
0.524624 0.0838228 0.0 
-7.79577e-110 3.06952e-110 0.0 
2.24401e-96 2.14229e-97 0.0 
0.00532184 0.000495935 0.0 
0.80612 0.249822 0.0 
0.00219356 -0.00037536 0.0 
1.00123 0.00771131 0.0 
0.913363 0.0162312 0.0 
0 0 0.0 
1.10637 0.0615032 0.0 
0 0 0.0 
0.659988 0.0610085 0.0 
0 0 0.0 
0.0791555 -0.154401 0.0 
0 0 0.0 
1.00216 -0.00148374 0.0 
0.996352 0.0529146 0.0 
0 0 0.0 
2.38297e-05 -2.92962e-06 0.0 
0.566076 -0.0952998 0.0 
0.988557 -0.00937993 0.0 
1.00918 0.0151187 0.0 
0.196595 -0.0203621 0.0 
0.00404505 -0.000693517 0.0 
1.07102 0.118374 0.0 
0.28476 0.138073 0.0 
0.00196053 -0.000228237 0.0 
0 0 0.0 
9.14933e-234 -2.44276e-235 0.0 
1.00633 0 0.0 
1.00133 0 0.0 
0.0590667 0.00544938 0.0 
0.745783 0.0280919 0.0 
0.18343 0.024591 0.0 
0.00291781 -0.000523555 0.0 
1.04739 0.250398 0.0 
0.999128 0.00226103 0.0 
0.801347 -0.140065 0.0 
0.840651 -0.0313086 0.0 
0.173814 -0.0181421 0.0 
0.554799 0.0321105 0.0 
0.406557 0.0222986 0.0 
0.204956 0.0083233 0.0 
0.00494308 0.000393917 0.0 
0.3546 -0.0331505 0.0 
0.097248 -0.00725677 0.0 
1.00984 0.00103112 0.0 
0.951896 -0.0698027 0.0 
1.00362 0.00575697 0.0 
0.760532 0.197502 0.0 
0.00349142 -0.000645965 0.0 
-1.92307e-183 1.57739e-185 0.0 
1.00021 0.000115443 0.0 
0 0 0.0 
0.0475117 0.0412099 0.0 
0 0 0.0 
0.888275 0.0244046 0.0 
0.431737 0.0118423 0.0 
0.593035 0.059646 0.0 
0 0 0.0 
0.358611 0.00340614 0.0 
0.0219476 -0.0003794 0.0 
0.229436 0.0138326 0.0 
1.08687 -0.166791 0.0 
0.162993 -0.00337337 0.0 
0.00562188 0.000407635 0.0 
0 0 0.0 
0.999845 -2.67965e-06 0.0 
0.949193 -0.0530412 0.0 
1.06352 -0.103999 0.0 
1.00264 0.0019699 0.0 
1.52351e-05 -2.87434e-07 0.0 
1.00015 0.000165194 0.0 
0.00541504 0.000241804 0.0 
0.00122036 -1.86244e-05 0.0 
0.0721228 -0.0254411 0.0 
7.0442e-11 -2.46034e-11 0.0 
1.01404 -0.00220011 0.0 
0.301561 0.0250792 0.0 
5.07352e-125 -1.92852e-126 0.0 
0 0 0.0 
0.403093 0.0346689 0.0 
0.999848 -0.00125043 0.0 
2.31594e-216 2.08136e-217 0.0 
8.20283e-05 5.61302e-06 0.0 
0.504989 0.00964344 0.0 
0.375876 -0.0300236 0.0 
0 0 0.0 
0.999705 5.85451e-05 0.0 
0.708728 -0.378004 0.0 
0.0157297 0.000973225 0.0 
1.07515 -0.0985851 0.0 
0.0445025 0.00206119 0.0 
0.0101361 0.000926762 0.0 
0.246349 0.0107085 0.0 
0.0210585 0.000395319 0.0 
0.273897 0.0265435 0.0 
0.345438 0.00392368 0.0 
0.653466 -0.0135598 0.0 
0.657254 -0.285983 0.0 
0 0 0.0 
1.05597 0.00360854 0.0 
0.999664 -0.000653682 0.0 
0.0184847 -0.00238524 0.0 
0.470171 0.0366686 0.0 
0.0561954 -0.0117017 0.0 
-9.57049e-42 1.34152e-42 0.0 
0.999787 1.00028e-05 0.0 
1.09443 0.144944 0.0 
0.183082 -0.00825992 0.0 
0.716063 -0.267383 0.0 
1.00001 0.000231623 0.0 
0.0034281 -0.000300032 0.0 
0.0788749 -0.027892 0.0 
0.992473 -0.0545761 0.0 
0.939129 0.0752862 0.0 
0.596481 -0.106156 0.0 
0.923859 -0.267122 0.0 
0.983091 -0.0262789 0.0 
0 0 0.0 
0 0 0.0 
0.755959 -0.00867087 0.0 
0.7179 0.337137 0.0 
0.524963 -0.0572212 0.0 
0.0107544 -0.000671271 0.0 
0.649004 0.256518 0.0 
0.713078 0.270928 0.0 
-3.63672e-137 1.7354e-137 0.0 
9.94443e-296 1.10344e-296 0.0 
0.259205 0.00338304 0.0 
0.999888 0.00113791 0.0 
0.742752 -0.0651921 0.0 
0 0 0.0 
0.771801 0.122039 0.0 
0.495081 0.0945096 0.0 
0.793597 0.0105458 0.0 
0.445187 0.0101441 0.0 
0.21379 0.0128123 0.0 
0.119961 -0.0031801 0.0 
-5.48804e-138 -2.97403e-139 0.0 
0 1e-307 0.0 
0.459416 0.0255268 0.0 
0.999995 -0.000252004 0.0 
0.677969 0.241613 0.0 
0.090447 -0.00359212 0.0 
0.00912434 0.00107196 0.0 
1.00104 0 0.0 
0 0 0.0 
1.10611 0.130267 0.0 
0.0120138 0.000453306 0.0 
0.711194 0.375636 0.0 
1.00124 -0.00222433 0.0 
1.01483 0.00347755 0.0 
0.222608 -0.0210919 0.0 
0 0 0.0 
-4.6502e-25 3.90039e-25 0.0 
0 0 0.0 
0.521184 -0.0305347 0.0 
0.729503 0.308109 0.0 
1.00032 -0.000243292 0.0 
0.0622434 -0.00632476 0.0 
1.00783 -0.00371376 0.0 
0.167647 -0.272022 0.0 
1.01432 -0.194733 0.0 
0.854445 0.129382 0.0 
0.608534 -0.291967 0.0 
0.101791 0.12774 0.0 
2.46124e-06 -6.50218e-08 0.0 
1.0208 -0.252281 0.0 
0.499939 -0.0120567 0.0 
0.873715 0.114477 0.0 
0 0 0.0 
0.0643697 0.00323981 0.0 
0.338677 -0.00286844 0.0 
1.00175 -0.00268788 0.0 
0.553865 -0.0635033 0.0 
0.539348 0.100038 0.0 
0.858187 0.151845 0.0 
0 0 0.0 
0.166936 0.000607017 0.0 
1.0124 0.00816052 0.0 
0.0494762 -0.118359 0.0 
1.00944 -0.0010484 0.0 
0.992011 -0.0628213 0.0 
0 0 0.0 
0.320941 -0.00519679 0.0 
0.581507 -0.42946 0.0 
0.218058 -0.00335651 0.0 
1.00029 0 0.0 
0.425281 -0.123987 0.0 
0.449478 -0.100716 0.0 
0.541876 -0.0341396 0.0 
-3.33311e-88 -5.95704e-89 0.0 
0.291636 0.0123769 0.0 
1.02217 -0.236257 0.0 
0.713452 -0.0508827 0.0 
0.727089 0.0547544 0.0 
0.965514 0.0724111 0.0 
0.525065 0.028597 0.0 
0.0701569 -0.00145007 0.0 
0.783484 0.366023 0.0 
0.838905 0.139937 0.0 
7.21335e-10 1.36414e-10 0.0 
1.01988 0.013415 0.0 
0.8346 -0.0277466 0.0 
0.00554173 -0.000711026 0.0 
1.03208 -0.0434086 0.0 
0 0 0.0 
0.0153203 0.000669641 0.0 
0.471698 -0.0833778 0.0 
0.00128068 -0.000202001 0.0 
0.869054 0.0839609 0.0 
0.460288 -0.043168 0.0 
1.03148 -0.0172686 0.0 
1 0 0.0 
0.0155878 0.000636182 0.0 
0.688819 0.286386 0.0 
0.761998 0.372059 0.0 
-2.29557e-132 -8.69643e-134 0.0 
0.0183713 0.000878608 0.0 
0.998046 -0.00109042 0.0 
0.491251 0.0302242 0.0 
0.0150296 -0.00112923 0.0 
0.991123 -0.00457774 0.0 
1.00779 0 0.0 
0.750133 0.277024 0.0 
1.00675 -0.00384484 0.0 
1e-307 1e-307 0.0 
0.999852 2.70519e-06 0.0 
0.872439 -0.283035 0.0 
5.04168e-05 -2.60645e-06 0.0 
0.9924 -0.00902324 0.0 
0.152569 0.0183654 0.0 
0.90173 -0.0114926 0.0 
1.00244 0 0.0 
0.997581 0.00140945 0.0 
0.790586 0.318394 0.0 
0.0956135 -0.151389 0.0 
0.376985 -0.0355619 0.0 
0.167017 0.0315571 0.0 
0.201478 -0.122617 0.0 
0.0661566 0.00959086 0.0 
1.0006 0.000294705 0.0 
0.49036 -0.0493826 0.0 
0.772141 0.364015 0.0 
0.747987 0.0632452 0.0 
0.295036 -0.137864 0.0 
1.00087 0.00232531 0.0 
0.864946 0.352172 0.0 
0.991396 0.00406492 0.0 
0.490887 -0.171202 0.0 
0.817055 0.355441 0.0 
0.993022 -0.00159661 0.0 
1.00211 -0.0101369 0.0 
0.944328 -0.335585 0.0 
0.573027 -0.0610224 0.0 
0.74572 -0.090528 0.0 
0.805686 -0.0817719 0.0 
0 0 0.0 
1.00405 0 0.0 
0.153588 -0.0204121 0.0 
0.328955 0.0458496 0.0 
1.05367 0.102548 0.0 
0.9546 -0.087843 0.0 
0 0 0.0 
0.488734 0.180322 0.0 
0.295046 0.00202317 0.0 
-1.41653e-197 1.1619e-199 0.0 
0.326027 0.0612173 0.0 
1.00759 -0.0016874 0.0 
0.0173414 -0.0010972 0.0 
1.00363 0.00191383 0.0 
0.050681 -0.0104272 0.0 
0 0 0.0 
-1.20511e-215 -9.98399e-217 0.0 
1.00566 0 0.0 
0.137782 0.00565237 0.0 
0.810878 0.126726 0.0 
1.03391 0.0160561 0.0 
0 0 0.0 
0.00963795 0.000827705 0.0 
0.453725 -0.0475363 0.0 
1.00584 0.000807921 0.0 
0.132375 0.00871002 0.0 
1.01686 -0.00836016 0.0 
1.00835 0.000454599 0.0 
0.16429 -0.0221272 0.0 
0.781106 0.136201 0.0 
0.394295 0.00556787 0.0 
0.000664678 3.94493e-05 0.0 
1.00004 0.00113818 0.0 
0.776816 -0.02788 0.0 
0 0 0.0 
4.17831e-05 4.77625e-06 0.0 
0.800542 0.0731168 0.0 
1.00046 0 0.0 
0.570566 0.0368608 0.0 
0.696761 -0.448498 0.0 
0.768404 0.0873202 0.0 
0 0 0.0 
0.312477 0.0219134 0.0 
0 0 0.0 
0.218291 -0.00205782 0.0 
0.843958 -0.093491 0.0 
0.761332 -0.0582111 0.0 
0.00632024 -0.00032678 0.0 
0.772059 -0.29017 0.0 
0.357666 0.17136 0.0 
1.01339 0.00437962 0.0 
1.00119 -0.000360939 0.0 
0.0729887 0.0109944 0.0 
2.35586e-95 -2.11123e-96 0.0 
0.876816 0.170466 0.0 
0.00495553 -0.00013541 0.0 
0.493206 -0.0264528 0.0 
4.30578e-06 -3.21724e-07 0.0 
0.0167141 -0.00289529 0.0 
0.0111033 0.000448501 0.0 
0.860462 -0.143556 0.0 
0.00954838 0.000733013 0.0 
1.02341 -0.185449 0.0 
1.00738 0 0.0 
0.592259 0.0809183 0.0 
0.0474797 -0.0170621 0.0 
-2.04432e-120 1.846e-121 0.0 
0.267564 -0.0160366 0.0 
0 0 0.0 
-1.0642e-31 -7.31764e-33 0.0 
1.08413 0.20545 0.0 
0.0527947 0.000409165 0.0 
1.01165 0.101164 0.0 
0.0143961 0.000770308 0.0 
0.0941805 0.0171205 0.0 
0.0476773 -0.000922228 0.0 
0.00720806 -0.000751898 0.0 
0.0103933 0.000910089 0.0 
0.473146 0.00898209 0.0 
0 0 0.0 
0 0 0.0 
0.864723 0.260498 0.0 
5.68009e-158 4.54399e-159 0.0 
0 0 0.0 
0 0 0.0 
0.0203553 0.000417886 0.0 
0.0176847 0.000917117 0.0 
0.333208 -0.0223689 0.0 
0.10071 0.0112782 0.0 
0.139087 0.00719244 0.0 
1.00853 -0.00485936 0.0 
0 0 0.0 
0.892867 -0.3006 0.0 
1.00112 0.000789683 0.0 
0.0456543 0.00285821 0.0 
0.966482 0.305873 0.0 
0 0 0.0 
0.617921 -0.0211753 0.0 
0.123032 -0.0869527 0.0 
-2.50226e-241 1.13063e-242 0.0 
-4.49007e-64 -1.2004e-64 0.0 
1.00665 -0.00102161 0.0 
9.969e-14 2.15725e-14 0.0 
0 0 0.0 
0 0 0.0 
1.06694 -0.00104451 0.0 
0.123566 0.0253104 0.0 
1.01076 0.00793689 0.0 
1.00775 -0.266468 0.0 
-2.77177e-27 -1.81828e-28 0.0 
0.411943 -0.00516415 0.0 
0.396294 -0.00371607 0.0 
1.00053 0.00522753 0.0 
1.0195 -0.302201 0.0 
0.312879 -0.0125551 0.0 
2.85495e-29 -1.76968e-30 0.0 
0.941518 -0.101126 0.0 
0.0154338 0.000558417 0.0 
0.00464073 -0.000418467 0.0 
-1.03274e-116 4.92799e-117 0.0 
-2.34719e-97 -7.3884e-98 0.0 
0.358352 -0.00427756 0.0 
1.01306 -0.294952 0.0 
0.75381 0.219401 0.0 
0.239543 0.0191962 0.0 
0.0207823 -0.00212112 0.0 
0.86724 -0.0344176 0.0 
0.181168 0.00107243 0.0 
0.0772469 -0.00017455 0.0 
1.00617 -0.000545463 0.0 
1.00229 -0.000390489 0.0 
0.00909942 -0.00132071 0.0 
0.999067 0.00164647 0.0 
0.999525 -0.000167685 0.0 
6.49218e-10 -2.1296e-10 0.0 
0 0 0.0 