<VTKFile type="UnstructuredGrid" version="0.1" byte_order="LittleEndian">
  <UnstructuredGrid>
    <Piece NumberOfPoints="12609" NumberOfCells="25060">
      <Points>
        <DataArray type = "Float64" NumberOfComponents="3" format="ascii">
0 0 0.0 
14 0 0.0 
14 8 0.0 
0 8 0.0 
4.38439 3.94377 0.0 
12.8057 1.94595 0.0 
0.483697 5.24337 0.0 
4.61598 4.05265 0.0 
4.83659 3.97779 0.0 
8.76534 4.32837 0.0 
4.07098 3.97065 0.0 
4.00291 3.97818 0.0 
4.16061 4.10191 0.0 
4.07626 4.00901 0.0 
4.03576 3.97997 0.0 
4.08492 3.93693 0.0 
4.63144 4.05277 0.0 
4.40144 3.95595 0.0 
3.97672 4.24464 0.0 
4.75383 4.0394 0.0 
4.60855 4.05443 0.0 
4.05477 4.02613 0.0 
4.80639 3.9712 0.0 
4.17043 4.04947 0.0 
8.29677 5.77683 0.0 
5.0151 3.97671 0.0 
4.40245 4.06905 0.0 
4.00922 3.99881 0.0 
4.02803 4.04844 0.0 
4.87571 3.99214 0.0 
4.01927 3.99345 0.0 
4.83463 3.99116 0.0 
4.11094 4.03801 0.0 
4.84218 4.09374 0.0 
4.20611 3.96621 0.0 
3.98196 3.98783 0.0 
5.00749 4.02107 0.0 
4.36023 4.05917 0.0 
4.86059 3.91551 0.0 
3.94642 3.98735 0.0 
4.03416 4.05264 0.0 
3.9934 4.00897 0.0 
4.0846 3.95789 0.0 
5.00166 3.98677 0.0 
4.08219 4.04607 0.0 
2.10866 2.95948 0.0 
4.24019 3.96638 0.0 
8.04544 4.03876 0.0 
4.23946 4.10873 0.0 
3.96029 4.05566 0.0 
4.1866 4.09865 0.0 
4.58171 4.05768 0.0 
3.92161 4.04543 0.0 
3.94138 3.99204 0.0 
4.62278 3.95949 0.0 
4.52763 3.9773 0.0 
10.8833 7.73481 0.0 
14 6.11123 0.0 
3.55334 3.60133 0.0 
3.96293 3.99513 0.0 
4.03268 4.02147 0.0 
5.27671 4.02149 0.0 
4.0958 4.04742 0.0 
4.99739 3.99818 0.0 
3.99922 3.99464 0.0 
4.92367 3.99539 0.0 
4.12359 3.91933 0.0 
4.99983 4.00536 0.0 
14 5.21618 0.0 
5.19785 3.88869 0.0 
8.55881 8 0.0 
4.17776 4.06995 0.0 
4.00626 3.98783 0.0 
5.00991 4.10716 0.0 
4.12301 3.9458 0.0 
9.76298 3.43917 0.0 
5.0091 4.00467 0.0 
4.0366 3.96299 0.0 
10.5445 6.71381 0.0 
4.27441 4.05318 0.0 
11.2736 0.564606 0.0 
4.23647 3.95137 0.0 
5.00128 3.99352 0.0 
4.08373 4.05666 0.0 
4.1189 4.05833 0.0 
4.31566 4.06979 0.0 
4.27852 0 0.0 
5.04845 4.04311 0.0 
4.89125 3.99292 0.0 
4.03617 3.97571 0.0 
4.13773 4.05544 0.0 
3.95621 4.03595 0.0 
4.67316 3.84438 0.0 
4.07494 4.0438 0.0 
5.01829 4.01403 0.0 
11.7697 0.872626 0.0 
10.1833 0.248119 0.0 
4.02875 4.04115 0.0 
4.1741 4.07586 0.0 
11.0107 6.5744 0.0 
3.7391 1.31631 0.0 
1.26284 5.53443 0.0 
4.15784 3.99361 0.0 
5.58744 4.77089 0.0 
4.19171 3.91923 0.0 
3.91267 2.38613 0.0 
4.31706 3.9682 0.0 
4.60454 4.05506 0.0 
4.53789 3.97654 0.0 
4.12124 3.98374 0.0 
5.81626 3.89075 0.0 
4.69989 3.98331 0.0 
4.0878 3.96517 0.0 
4.87202 3.99314 0.0 
4.22201 3.96756 0.0 
5.06683 3.99568 0.0 
4.02244 4.02798 0.0 
4.04361 3.98526 0.0 
0 1.4212 0.0 
4.03462 3.97187 0.0 
4.34869 4.07554 0.0 
3.51347 6.02973 0.0 
5.01331 3.98969 0.0 
4.60302 4.05602 0.0 
5.05392 4.01449 0.0 
4.15542 3.92346 0.0 
4.12754 3.92728 0.0 
8.97154 0.304724 0.0 
4.79296 3.98918 0.0 
4.08696 3.9688 0.0 
4.85227 4.04896 0.0 
5.182 4.1265 0.0 
4.46938 4.06525 0.0 
4.86114 3.98044 0.0 
1.33544 3.16129 0.0 
3.99252 4.00665 0.0 
4.00947 4.02943 0.0 
4.01191 3.98609 0.0 
5.00105 3.99928 0.0 
4.28243 3.96709 0.0 
3.99602 4.00219 0.0 
4.24294 4.04149 0.0 
4.05784 3.98854 0.0 
5.06886 4.12388 0.0 
4.1894 4.12796 0.0 
4.10081 3.94382 0.0 
4.97677 4.00568 0.0 
4.44059 3.97386 0.0 
5.00368 4.02219 0.0 
10.7396 5.64099 0.0 
4.32148 4.0694 0.0 
4.00771 3.94746 0.0 
3.98835 4.00207 0.0 
4.20063 4.06181 0.0 
3.9818 4.03131 0.0 
3.96476 4.03852 0.0 
4.1449 3.99721 0.0 
3.97233 4.04194 0.0 
4.12782 4.05475 0.0 
3.99803 4.00953 0.0 
4.00621 4.04562 0.0 
1.12644 3.34247 0.0 
3.92251 4.00785 0.0 
4.00549 3.99143 0.0 
4.82321 3.87474 0.0 
4.71185 3.96884 0.0 
4.91506 4.01485 0.0 
11.7839 4.06063 0.0 
4.47381 3.97371 0.0 
4.25904 4.18628 0.0 
5.04007 4.02119 0.0 
4.10229 4.05392 0.0 
13.2653 2.91651 0.0 
4.00756 4.02287 0.0 
1.05222 0.389197 0.0 
4.23103 3.92099 0.0 
4.98371 4.01321 0.0 
4.79102 4.05549 0.0 
4.05025 4.03547 0.0 
4.00586 4.11479 0.0 
4.4479 4.07522 0.0 
4.74544 4.06797 0.0 
4.6586 4.05035 0.0 
4.10608 4.02928 0.0 
9.70924 3.94952 0.0 
4.50985 7.40044 0.0 
6.25011 3.88829 0.0 
4.15942 4.03647 0.0 
4.87288 3.98618 0.0 
5.05919 4.01855 0.0 
2.15923 7.15628 0.0 
13.1645 1.65862 0.0 
3.7395 4.14609 0.0 
3.99964 4.01132 0.0 
5.0468 2.13587 0.0 
7.18887 6.80823 0.0 
1.24078 0.550265 0.0 
9.10545 7.45594 0.0 
2.38032 0.204862 0.0 
4.53453 3.97624 0.0 
4.01517 4.03055 0.0 
3.99882 3.99972 0.0 
3.99903 4.00913 0.0 
4.03847 4.00478 0.0 
3.99908 3.98836 0.0 
4.07571 3.89439 0.0 
3.80535 3.75392 0.0 
4.17758 3.91258 0.0 
4.1938 4.04426 0.0 
4.21507 3.9482 0.0 
4.80199 3.98944 0.0 
4.97222 4.02124 0.0 
12.9895 4.16031 0.0 
4.11054 3.96879 0.0 
4.00463 3.98938 0.0 
4.02434 3.98219 0.0 
11.9473 3.59927 0.0 
5.1327 4.04445 0.0 
4.00862 3.98581 0.0 
4.07325 4.06871 0.0 
1.98102 3.73905 0.0 
4.44877 4.06608 0.0 
3.64991 2.324 0.0 
3.9901 3.98452 0.0 
4.97439 3.96659 0.0 
5.67564 4.18091 0.0 
4.44211 1.99489 0.0 
7.06658 4.00794 0.0 
4.39353 4.08655 0.0 
4.97032 4.00564 0.0 
4.1797 4.07872 0.0 
5.00462 3.99433 0.0 
3.99899 4.01393 0.0 
4.93354 4.06283 0.0 
4.67941 4.01821 0.0 
4.77021 4.14294 0.0 
13.2253 0 0.0 
6.33494 3.99698 0.0 
4.00919 4.00338 0.0 
4.83389 4.02778 0.0 
4.0146 3.99506 0.0 
4.17873 3.95687 0.0 
5.08198 4.04957 0.0 
5.02947 4.00625 0.0 
4.66178 5.62463 0.0 
3.84265 3.97283 0.0 
4.88284 4.0349 0.0 
4.00156 3.99518 0.0 
5.23395 4.0551 0.0 
4.08711 3.98632 0.0 
5.35939 3.93461 0.0 
4.80545 3.154 0.0 
4.01254 4.0098 0.0 
3.98048 4.05294 0.0 
4.26808 5.22566 0.0 
4.13386 4.04638 0.0 
3.98816 4.01224 0.0 
4.34955 3.97017 0.0 
4.05064 3.83197 0.0 
0.833891 1.27417 0.0 
3.99752 4.02893 0.0 
4.01884 3.99521 0.0 
1.22757 1.74774 0.0 
3.98628 3.99582 0.0 
4.72738 4.04754 0.0 
4.74863 3.98648 0.0 
4.4141 4.06755 0.0 
1.63656 6.16366 0.0 
4.3523 4.06866 0.0 
4.38844 3.97112 0.0 
4.63651 4.05283 0.0 
9.55669 5.91713 0.0 
4.00774 3.99043 0.0 
4.66593 4.04952 0.0 
4.27595 4.04356 0.0 
4.3171 4.12404 0.0 
4.0176 3.99821 0.0 
3.93549 3.94275 0.0 
4.17725 4.05344 0.0 
4.13669 4.04946 0.0 
5.10311 4.0306 0.0 
4.71816 3.97525 0.0 
4.01026 3.99982 0.0 
4.21041 4.07907 0.0 
6.6106 7.75507 0.0 
4.27596 3.72514 0.0 
4.3944 4.06961 0.0 
4.18359 4.0716 0.0 
3.89682 3.97158 0.0 
5.72494 4.06934 0.0 
1.81227 0.619359 0.0 
9.7615 7.49749 0.0 
4.03555 4.04124 0.0 
3.9961 4.02386 0.0 
4.58132 4.03067 0.0 
9.5363 4.48999 0.0 
10.0092 4.03838 0.0 
5.18793 4.05304 0.0 
4.29182 3.96838 0.0 
3.98111 4.00805 0.0 
3.90594 4.04874 0.0 
3.99352 3.97666 0.0 
0.747562 5.69493 0.0 
4.01577 3.95866 0.0 
5.53483 3.74033 0.0 
4.61484 4.30261 0.0 
0.471297 5.53111 0.0 
3.98586 3.96653 0.0 
4.34683 3.96991 0.0 
11.3109 3.9311 0.0 
3.98206 3.97395 0.0 
4.16459 3.96618 0.0 
4.87337 4.02317 0.0 
4.0036 4.03909 0.0 
4.02402 4.04636 0.0 
4.296 4.04296 0.0 
4.86631 4.05372 0.0 
4.06133 4.06985 0.0 
5.04267 4.00787 0.0 
3.99417 4.04189 0.0 
7.6181 7.09785 0.0 
4.71441 7.15979 0.0 
3.99997 3.99241 0.0 
4.41092 4.08744 0.0 
4.02494 4.02883 0.0 
3.98918 4.03714 0.0 
6.02554 0.627646 0.0 
4.01059 4.0357 0.0 
4.45157 4.0778 0.0 
0.222837 3.90996 0.0 
4.14156 3.9348 0.0 
4.00056 4.04248 0.0 
13.5307 3.50162 0.0 
2.48135 1.40934 0.0 
3.9896 4.00463 0.0 
4.34655 4.07101 0.0 
3.98613 3.98439 0.0 
4.0176 3.97351 0.0 
4.00273 4.04763 0.0 
4.02428 4.00868 0.0 
3.99093 4.00808 0.0 
4.81879 3.99 0.0 
4.43871 3.9733 0.0 
4.06721 3.79279 0.0 
4.55164 3.91445 0.0 
4.99702 4.01381 0.0 
3.98643 3.99986 0.0 
4.56409 3.94817 0.0 
4.13574 4.06721 0.0 
3.99581 3.98523 0.0 
4.06783 4.06315 0.0 
4.0264 3.97894 0.0 
3.98481 4.00073 0.0 
3.97761 4.0047 0.0 
8.39153 6.28241 0.0 
4.38947 3.9133 0.0 
4.68762 4.02518 0.0 
4.11077 4.06077 0.0 
3.98558 4.00796 0.0 
4.53342 4.06227 0.0 
4.61162 4.0546 0.0 
9.07183 3.18918 0.0 
14 6.70716 0.0 
4.05471 3.96974 0.0 
4.38441 4.10746 0.0 
4.00357 4.03077 0.0 
4.04058 4.03133 0.0 
9.04276 5.96039 0.0 
4.07076 4.03121 0.0 
13.145 3.87435 0.0 
3.99705 4.04765 0.0 
5.00029 3.98416 0.0 
4.73972 4.04159 0.0 
4.27037 4.11663 0.0 
4.01188 3.98529 0.0 
4.25372 4.08514 0.0 
4.42956 3.97309 0.0 
4.22397 4.08355 0.0 
4.02241 4.04141 0.0 
3.9487 4.03134 0.0 
4.19738 4.063 0.0 
4.02972 4.05235 0.0 
4.09269 3.96863 0.0 
4.01777 4.04818 0.0 
4.00316 4.00723 0.0 
4.77675 3.98806 0.0 
4.0266 3.96232 0.0 
7.69939 4.28667 0.0 
4.10695 3.94953 0.0 
0.44428 0.940178 0.0 
13.0064 4.46872 0.0 
4.56241 3.97758 0.0 
4.28117 3.92206 0.0 
4.03778 3.99834 0.0 
4.04638 4.02868 0.0 
4.27012 4.05517 0.0 
4.98982 4.00344 0.0 
4.27242 3.94793 0.0 
4.98817 4.01929 0.0 
3.95357 4.06538 0.0 
3.99197 3.99669 0.0 
4.10175 3.95894 0.0 
3.9973 4.00729 0.0 
4.92232 3.995 0.0 
4.50837 3.96307 0.0 
4.00572 3.98505 0.0 
4.50151 4.05239 0.0 
4.82909 3.99006 0.0 
1.00756 4.75511 0.0 
3.99904 3.97967 0.0 
3.94862 4.04213 0.0 
4.03263 3.9819 0.0 
4.02112 3.98332 0.0 
11.7168 4.54401 0.0 
4.04708 3.97263 0.0 
4.08476 4.08 0.0 
4.1493 4.05749 0.0 
4.97769 4.00434 0.0 
8.94038 7.70202 0.0 
2.33056 5.57699 0.0 
5.00333 4.004 0.0 
4.59698 4.06374 0.0 
6.01183 1.03447 0.0 
4.02545 4.02772 0.0 
10.8478 4.42307 0.0 
5.00794 4.01633 0.0 
3.97614 4.01755 0.0 
4.0559 3.90662 0.0 
5.46984 4.17168 0.0 
4.10924 4.05222 0.0 
9.15388 3.83278 0.0 
4.05141 4.01968 0.0 
4.05996 4.02956 0.0 
4.16061 4.06024 0.0 
4.07218 4.06206 0.0 
10.3029 5.71237 0.0 
4.77341 4.03683 0.0 
8.98125 6.17249 0.0 
4.00618 4.01823 0.0 
4.67591 4.04846 0.0 
4.09925 3.96941 0.0 
4.09476 4.08011 0.0 
4.05476 4.03764 0.0 
3.99998 3.99906 0.0 
3.99441 4.00022 0.0 
4.92378 3.89485 0.0 
4.0476 4.09266 0.0 
3.96929 3.97533 0.0 
4.31762 3.11801 0.0 
4.73416 3.98624 0.0 
5.01215 3.99407 0.0 
13.2096 6.91331 0.0 
4.03831 3.95277 0.0 
5.02611 4.00685 0.0 
4.28981 4.11298 0.0 
4.3231 4.06066 0.0 
4.48134 3.97521 0.0 
4.72449 3.98548 0.0 
4.01978 4.02634 0.0 
4.57816 3.9788 0.0 
4.22501 3.96622 0.0 
4.76059 3.9328 0.0 
0.922814 3.77166 0.0 
3.99511 3.99395 0.0 
3.79939 4.10715 0.0 
4.14347 4.06123 0.0 
3.98715 3.90064 0.0 
4.18223 4.05938 0.0 
4.84453 3.99129 0.0 
4.01164 4.01448 0.0 
4.30075 4.07443 0.0 
4.08331 3.86754 0.0 
[...]
<PointData>
  <DataArray type = "Float64" Name="Vitesse" NumberOfComponents="3" format="ascii">
1 0 0.0 
1.00718 0 0.0 
1.0058 0 0.0 
1 0 0.0 
0.441037 0.00460026 0.0 
1.00876 0.00038283 0.0 
0.999968 0.000642761 0.0 
3.8115e-53 -2.02944e-54 0.0 
0.129805 0.00590751 0.0 
1.00854 -0.00250245 0.0 
0.129672 -0.0183751 0.0 
0.739168 -0.455986 0.0 
1.06387 0.186608 0.0 
6.7603e-220 7.90425e-221 0.0 
-1.54382e-29 4.46271e-30 0.0 
1.05137 -0.187222 0.0 
0.00040688 -2.37776e-05 0.0 
0.240054 0.00521312 0.0 
0.977698 0.106381 0.0 
0.00271064 -0.000172571 0.0 
2.25881e-06 -1.71207e-07 0.0 
0 0 0.0 
0.183486 0.0081657 0.0 
5.78844e-294 2.84452e-295 0.0 
1.00946 -0.0016612 0.0 
0.221187 0.0248949 0.0 
0.0214394 0.000534113 0.0 
0 0 0.0 
0.836907 0.359983 0.0 
0.0091363 0.000401851 0.0 
0 0 0.0 
0.000386832 2.14643e-05 0.0 
0 0 0.0 
0.563523 -0.0375228 0.0 
0.0311348 0.000992158 0.0 
0.590414 -0.22871 0.0 
0.0596882 -0.0182177 0.0 
0 0 0.0 
0.758617 0.0227435 0.0 
0.749256 -0.0791563 0.0 
0.86941 0.348532 0.0 
0.294166 0.114449 0.0 
0.604047 -0.0878714 0.0 
0.125708 0.0173484 0.0 
0.137526 0.026911 0.0 
0.998399 -0.00304028 0.0 
0.0287043 0.000988069 0.0 
0.70989 -0.000791903 0.0 
1.01262 0.114349 0.0 
0.78234 0.135099 0.0 
1.00241 0.151726 0.0 
0.00553814 -0.000241484 0.0 
0.815907 0.0551181 0.0 
0.756366 -0.0582388 0.0 
0.247649 0.00917557 0.0 
9.9786e-40 1.92911e-40 0.0 
1.00689 -9.932e-05 0.0 
1.00731 -0.000643343 0.0 
0.981439 -0.0226683 0.0 
0.670803 -0.0828035 0.0 
0 0 0.0 
0.240023 -0.00696714 0.0 
0.0373871 0.0113749 0.0 
0.0112385 0.000848769 0.0 
0.192656 -0.294021 0.0 
2.05588e-05 -6.63259e-07 0.0 
1.08903 -0.142929 0.0 
0.0162636 -0.00900125 0.0 
1.00693 -0.00170131 0.0 
0.908293 0.0322138 0.0 
1.00798 0 0.0 
0.367861 0.0467025 0.0 
0.283996 -0.21649 0.0 
0.736933 -0.0496856 0.0 
0.771788 -0.0826837 0.0 
1.00873 -0.00055783 0.0 
0.0263743 -0.00696009 0.0 
0.870046 -0.262218 0.0 
1.00758 -0.000499319 0.0 
1.45656e-156 5.63035e-158 0.0 
1.00791 0.000104776 0.0 
0.362576 -0.00519029 0.0 
0.0650434 0.014079 0.0 
0.609398 0.161699 0.0 
0.319088 0.0613033 0.0 
0.0245683 0.00183106 0.0 
1.00631 0 0.0 
0.197426 -0.0263968 0.0 
0.00905801 0.000160272 0.0 
0.243564 -0.0615003 0.0 
0.0423907 0.00490791 0.0 
0.737066 0.0905727 0.0 
1.05845 0.00255216 0.0 
0.116415 0.0353652 0.0 
0.0443434 -0.0134046 0.0 
1.00794 0.000166427 0.0 
1.00804 4.84766e-05 0.0 
0.733011 0.334791 0.0 
0.582895 0.0834636 0.0 
1.00756 -0.000487281 0.0 
1.00575 -0.00366406 0.0 
0.99995 0.00202614 0.0 
-6.25642e-137 -8.91015e-138 0.0 
1.02012 -0.0104041 0.0 
1.01974 -0.0781818 0.0 
1.00803 -0.0099321 0.0 
0.0201833 0.00080006 0.0 
6.93866e-07 -2.81564e-08 0.0 
0.00733754 0.000345483 0.0 
0 0 0.0 
0.8838 0.0138494 0.0 
0.0145377 0.000259346 0.0 
0.276851 -0.0319181 0.0 
0.00024314 1.12509e-05 0.0 
0.000184005 -2.90714e-06 0.0 
0.122258 0.0107075 0.0 
0.331629 0.175758 0.0 
0 0 0.0 
1 0 0.0 
0.528131 -0.153016 0.0 
0.148892 0.000639225 0.0 
1.00668 0.00773329 0.0 
0.106379 0.0188191 0.0 
0.00724262 -0.00053681 0.0 
0.0772438 -0.00645785 0.0 
1.03548 -0.103389 0.0 
1.05111 -0.130749 0.0 
1.00832 7.56943e-05 0.0 
1.53646e-56 1.92406e-57 0.0 
0.117752 -0.0114724 0.0 
0.132368 -0.0140035 0.0 
0.871923 -0.0442814 0.0 
1.16635e-05 -1.11553e-07 0.0 
0.114217 0.00530748 0.0 
0.999231 -0.0010348 0.0 
0.283005 0.0458581 0.0 
0.618661 0.369968 0.0 
0.108337 -0.0634875 0.0 
0.00971806 0.00419597 0.0 
0.0263861 0.000796643 0.0 
0.133519 -0.0765197 0.0 
3.47385e-207 4.05052e-208 0.0 
0 0 0.0 
0.857627 -0.0505653 0.0 
1.10948 0.163468 0.0 
0.915721 -0.131354 0.0 
0.0011274 -0.000303465 0.0 
3.63647e-33 4.44772e-34 0.0 
0.0630356 -0.0176351 0.0 
1.00872 -0.000731359 0.0 
0.0163419 0.000602463 0.0 
0.924197 -0.302059 0.0 
0.37389 -0.0860357 0.0 
6.98308e-11 9.16144e-12 0.0 
0.646252 0.182102 0.0 
0.723697 0.121296 0.0 
-1.01245e-142 -8.87343e-144 0.0 
0.721213 0.156026 0.0 
0.0825151 0.0141352 0.0 
0.198209 0.178708 0.0 
0.761926 0.327798 0.0 
0.999374 -0.000588685 0.0 
0.791594 -0.0106851 0.0 
-8.15501e-162 3.65619e-162 0.0 
0.991121 0.017576 0.0 
0.171321 0.00731402 0.0 
-6.47509e-15 5.98207e-16 0.0 
0.827507 -0.00218629 0.0 
0.0103046 0.000589813 0.0 
1.1101 0.107371 0.0 
0.0787084 -0.014293 0.0 
0.286417 0.0617954 0.0 
1.00898 0.000652196 0.0 
0.472677 0.330543 0.0 
1.00035 -0.000274837 0.0 
0.945758 -0.0514076 0.0 
0.0231494 -0.00481107 0.0 
0.143599 -0.0145333 0.0 
0.0663134 0.0160535 0.0 
0.919916 0.197177 0.0 
0.149208 -0.00454506 0.0 
0.231621 -0.019494 0.0 
0.00446242 -0.000224423 0.0 
0 0 0.0 
0.781058 0.00436731 0.0 
1.00853 0.00129239 0.0 
0.885285 0.00732686 0.0 
1.03118e-181 1.3697e-182 0.0 
0.0640913 0.0030967 0.0 
0.0873717 -0.0093602 0.0 
1.00202 0.00172311 0.0 
1.00827 0.000393058 0.0 
0.941673 0.0323344 0.0 
0.217131 0.217437 0.0 
1.01294 -0.00312081 0.0 
1.00972 -0.00100716 0.0 
1.0005 -0.000463328 0.0 
1.00779 -0.000317602 0.0 
1.00202 -0.000373523 0.0 
0.00933962 0.000286576 0.0 
0.600268 0.337451 0.0 
0.0492204 -0.116916 0.0 
0.161459 0.167914 0.0 
1.68776e-278 1.68384e-279 0.0 
0.479556 -0.446145 0.0 
1.05581 -0.172777 0.0 
0.965221 -0.050991 0.0 
1.07398 -0.0959417 0.0 
-3.91046e-163 -5.18383e-164 0.0 
0.461641 -0.0135192 0.0 
2.53912e-05 1.01207e-06 0.0 
0.0442986 -0.00699826 0.0 
0.9063 -0.00282734 0.0 
0.0331877 -0.00418866 0.0 
0.246427 -0.213401 0.0 
8.40232e-06 -2.43431e-06 0.0 
1.01145 -0.00102465 0.0 
0.256201 -0.022819 0.0 
0.322985 -0.202603 0.0 
0.950753 0.279894 0.0 
0.996982 -0.000366917 0.0 
0.000330096 -1.82216e-05 0.0 
1.0055 -0.00885344 0.0 
0.595034 -0.347168 0.0 
0.301654 0.018277 0.0 
0.991805 -0.0213514 0.0 
1.01014 -0.00553724 0.0 
0.627589 0.000764828 0.0 
0.366254 0.000932864 0.0 
4.03465e-06 -6.42096e-07 0.0 
0.638385 0.0898516 0.0 
0.0604567 0.0150762 0.0 
0.31255 0.266951 0.0 
0.296733 -0.0272285 0.0 
0 0 0.0 
0.975811 -0.0367651 0.0 
1.00739 0 0.0 
0.552401 0.000662281 0.0 
0 0 0.0 
5.2554e-05 -7.24979e-06 0.0 
0 0 0.0 
0.290501 -0.00957856 0.0 
0.260801 -0.0289327 0.0 
0.0534227 -0.00202708 0.0 
1.01782 0.00618966 0.0 
0.887821 -0.0264418 0.0 
0.0599948 -0.00732365 0.0 
0.046563 -0.0752392 0.0 
0.381133 -0.0249973 0.0 
0 0 0.0 
0.656691 0.0240802 0.0 
1.02687 -0.0053628 0.0 
0 0 0.0 
0.759704 0.198741 0.0 
1.01931 0.0151835 0.0 
0 0 0.0 
0.433144 0.110358 0.0 
2.22576e-05 -5.0148e-07 0.0 
1.0205 -0.129363 0.0 
1.00016 -0.000649303 0.0 
0.606018 0.314763 0.0 
0 0 0.0 
1.00022 -0.00127164 0.0 
0.460487 -0.192681 0.0 
0.0360177 -0.00399918 0.0 
0.00510079 0.000319954 0.0 
2.75393e-49 -9.49601e-52 0.0 
1.00063 0.00255791 0.0 
2.27509e-07 -7.95221e-09 0.0 
0.00820818 0.00101014 0.0 
0.00518864 -0.000572281 0.0 
1.00873 -0.000987568 0.0 
0 0 0.0 
0.00372178 -0.000269067 0.0 
4.06346e-216 4.05401e-217 0.0 
1.04998 0.0736262 0.0 
0 0 0.0 
0.850005 -0.119557 0.0 
5.92081e-66 7.90152e-67 0.0 
6.50151e-89 7.02923e-90 0.0 
0.157247 -0.0164398 0.0 
0.105245 0.00480249 0.0 
0 0 0.0 
0.513405 0.0572789 0.0 
1.00948 -0.000130914 0.0 
1.05989 -0.0522176 0.0 
0.0294076 -0.00118697 0.0 
0.395018 0.0491721 0.0 
0.848254 -0.0503247 0.0 
0.609457 -0.0164756 0.0 
1.0011 -0.000823769 0.0 
1.00743 -0.000246665 0.0 
0.662454 0.278269 0.0 
0.540511 0.299396 0.0 
1.19182e-201 1.39349e-202 0.0 
1.00899 -0.00129975 0.0 
0.779558 -0.00146747 0.0 
0.344186 -0.0254117 0.0 
0.00834229 0.000693204 0.0 
0.503455 0.00914899 0.0 
0.838595 0.0466499 0.0 
0.709317 -0.378463 0.0 
1.00002 0.00107942 0.0 
0.944344 -0.359885 0.0 
1.01407 0.0158743 0.0 
1.08749 0.00350012 0.0 
0.999984 0.00065724 0.0 
0.772326 -0.286853 0.0 
0.006502 0.00058139 0.0 
0.832504 0.00162144 0.0 
0.716448 -0.26784 0.0 
0.0469268 -0.00256381 0.0 
0.00316969 -0.000389783 0.0 
0.714024 0.336518 0.0 
0.81828 0.365647 0.0 
1.09807e-204 1.28388e-205 0.0 
0.177799 -0.0176044 0.0 
0.9693 0.303469 0.0 
0.0661206 -0.00169001 0.0 
0.710867 0.270949 0.0 
1.00903 -0.000732942 0.0 
1.00932 0.00156933 0.0 
0.276129 -0.347347 0.0 
0.377612 -0.00115753 0.0 
0.306851 0.164718 0.0 
0.67577 0.241312 0.0 
1.00894 -0.000246355 0.0 
0.706737 0.375476 0.0 
0.195255 -0.00559644 0.0 
0.999967 4.06557e-05 0.0 
0.934866 -0.0947803 0.0 
0.726797 0.308466 0.0 
1.01253 0.000326558 0.0 
1.00191 -0.00278896 0.0 
0.344767 -0.0249576 0.0 
0.0464792 0.000578393 0.0 
0.608343 -0.292602 0.0 
0.763625 -0.33218 0.0 
0.761622 0.305323 0.0 
0 0 0.0 
0.337953 0.0651921 0.0 
0.00512615 0.000431331 0.0 
9.57049e-38 9.68868e-39 0.0 
1.02371 -0.107178 0.0 
0.797898 0.00802717 0.0 
0.0330304 -0.0116917 0.0 
0.424006 -0.124295 0.0 
0.378425 0.0106317 0.0 
0.531796 0.0958209 0.0 
0.579617 -0.434149 0.0 
0.90086 0.277804 0.0 
0.227523 -0.07673 0.0 
0.448258 -0.100941 0.0 
0.540594 -0.0345378 0.0 
1.00899 -0.00123516 0.0 
0.879952 -0.0093151 0.0 
-3.05649e-125 1.5646e-126 0.0 
0.495496 0.105233 0.0 
0.43905 0.0244667 0.0 
0.0147396 -0.000414928 0.0 
6.265e-05 -4.14061e-06 0.0 
1.00958 0.00110829 0.0 
1.00658 -0.000436009 0.0 
0.335805 -0.0680529 0.0 
0.77435 0.0207692 0.0 
0.638901 0.360405 0.0 
-1.03092e-95 -4.04633e-96 0.0 
1.00889 -0.00117438 0.0 
0 0 0.0 
0.885243 0.00198475 0.0 
0.7482 0.27771 0.0 
0.148963 0.0172766 0.0 
0.00607411 -0.00048606 0.0 
1.04224 0.0989779 0.0 
0.199073 -0.109209 0.0 
0.538138 0.0455318 0.0 
0.000172563 3.4029e-05 0.0 
0.589811 0.0617795 0.0 
0.76829 0.366531 0.0 
0.746567 0.0632597 0.0 
0.0334856 0.00693289 0.0 
0.864261 0.354408 0.0 
0.101461 -0.00970184 0.0 
0.814327 0.35672 0.0 
-8.4315e-34 -9.40943e-34 0.0 
0.00486904 0.000255794 0.0 
0.943037 -0.33443 0.0 
1.00746 -0.00362299 0.0 
0.745928 -0.0905461 0.0 
1.00005 -0.00025556 0.0 
1.01072 -0.000511647 0.0 
0.00795091 0.0011713 0.0 
0.868798 -0.0282709 0.0 
0 0 0.0 
-6.08991e-130 -2.16829e-130 0.0 
-3.88237e-128 -2.97447e-129 0.0 
0.00194031 -0.000440516 0.0 
0.409044 -0.00321018 0.0 
0.0458883 -0.00985327 0.0 
0.809941 0.127227 0.0 
0.339146 -0.245348 0.0 
0.454262 -0.0487345 0.0 
0.155714 0.115571 0.0 
0.00364238 0.000211996 0.0 
0.163959 0.00582834 0.0 
0.497088 -0.353822 0.0 
4.06355e-171 1.56501e-171 0.0 
0.00876471 0.000448201 0.0 
0.999575 0.00116417 0.0 
0.697513 -0.44897 0.0 
0.767345 0.0873413 0.0 
2.63947e-87 -6.18361e-88 0.0 
3.03097e-06 -9.8763e-07 0.0 
1.01183 3.58187e-05 0.0 
0.26803 -0.0495195 0.0 
1.01084 0.27076 0.0 
0.0536394 0.0125927 0.0 
2.95382e-06 -3.62538e-07 0.0 
1.00783 -0.000182879 0.0 
1.00042 0.0052454 0.0 
0.0168514 -0.00962369 0.0 
0.0829314 -0.00635873 0.0 
1.00943 -0.000352919 0.0 
0.219733 0.121248 0.0 
1.01133 -0.00104514 0.0 
0.043841 -0.0167974 0.0 
0.59053 0.0803667 0.0 
1.04049 -0.198552 0.0 
0.985337 -0.0295178 0.0 
0.127739 0.0202008 0.0 
0.940814 -0.000238803 0.0 
7.56921e-266 2.4016e-266 0.0 
0 0 0.0 
0.0945594 0.0124951 0.0 
0.860549 0.257357 0.0 
1.00879 -0.000888674 0.0 
0.00251655 -1.3071e-05 0.0 
1.00873 -0.00107299 0.0 
0.322948 0.261619 0.0 
0.00487201 -0.00021744 0.0 
0.0416646 -0.00350108 0.0 
1.00677 0.256134 0.0 
0.105575 0.0402402 0.0 
0.0271298 -0.0630329 0.0 
0.20877 -0.157864 0.0 
0.898782 0.0272278 0.0 
0.967606 0.265461 0.0 
0.72517 -0.185076 0.0 
1.02147 -0.0189163 0.0 
0.000792103 0.000117644 0.0 
0.0726401 0.0140629 0.0 
1.0066 -0.000346609 0.0 
1.00982 -0.294988 0.0 
0.0487188 -0.00339513 0.0 
0.982084 0.0795834 0.0 
0 0 0.0 
3.03696e-34 3.33394e-35 0.0 
0.0049013 3.81621e-05 0.0 
0.322122 0.166802 0.0 
0.000393559 2.82397e-05 0.0 
0.0295196 -0.000178771 0.0 
0.586884 0.0177215 0.0 
0.999516 2.15852e-05 0.0 
0.334855 -0.349731 0.0 
0.921141 0.0354882 0.0 
0.244589 0.0377035 0.0 
0.940216 -0.176142 0.0 
-4.77505e-43 -9.14668e-44 0.0 
0.00494674 0.000490404 0.0 
-3.21454e-112 -1.63116e-112 0.0 
0.157896 0.00548538 0.0 
1.04912 -0.146209 0.0 
1.00659 0 0.0 
0.726855 0.191135 0.0 
1.00732 0 0.0 
0.677537 0.19904 0.0 
0.665434 -0.216337 0.0 
0.5004 0.151731 0.0 
0.225723 0.0233963 0.0 
0 0 0.0 
0.0426035 -0.00344662 0.0 
1.03609 -0.273158 0.0 
0.595031 -0.0751898 0.0 
0.00456246 0.000509694 0.0 
0.006691 0.000731387 0.0 
0.536625 -0.0627948 0.0 
0.120953 -0.00739084 0.0 
-4.68921e-231 -1.58986e-231 0.0 
1.09301 -0.0947173 0.0 
0 0 0.0 
1.02869 -0.0380791 0.0 
0.490817 -0.119039 0.0 
1.008 -0.0444696 0.0 
1.00619 -7.69729e-05 0.0 
0.981318 0.0074147 0.0 
1.0098 0.000747411 0.0 
0.00391718 0.000481949 0.0 
0 0 0.0 
5.11071e-290 -1.8366e-290 0.0 
0.0395077 0.00646831 0.0 
1.00174 0 0.0 
0.692547 -0.288657 0.0 
4.29896e-92 3.60819e-93 0.0 
1.00931 -0.00150985 0.0 
5.41071e-65 9.00488e-65 0.0 
1.26569e-258 2.64276e-260 0.0 
0.932017 -0.233678 0.0 
1.00974 0.000607317 0.0 
1.07123 -0.0275111 0.0 
0.00157142 0.000153966 0.0 
0.859158 0.221763 0.0 
1.02565 -0.0277868 0.0 
0.117515 -0.0215018 0.0 
1.00003 0.000513582 0.0 
0.745583 -0.428812 0.0 
1.45539e-64 2.42216e-64 0.0 
0.0042756 -3.69851e-05 0.0 
0.0116352 0.000555268 0.0 
0.0965484 0.00690579 0.0 
0.819685 -0.245222 0.0 
0.538863 -0.329747 0.0 
0.993462 -0.00739072 0.0 
0.0096863 -0.000483384 0.0 
1e-307 0 0.0 
1.03621 -0.00102388 0.0 
0.0331944 -0.0150661 0.0 
-4.96409e-14 3.3562e-15 0.0 
0.465398 0.0187656 0.0 
0.802457 -0.352325 0.0 
1.00756 -0.000495715 0.0 
0.00211087 -0.000440149 0.0 
0 0 0.0 
1.08571 -0.181047 0.0 
0.118821 0.0275897 0.0 
0.444556 0.0461023 0.0 
0.64498 -0.00940524 0.0 
0.00911068 0.000937729 0.0 
1.00784 7.76608e-05 0.0 
1.00759 -0.0960214 0.0 
0 0 0.0 
1.00963 0.000343383 0.0 
0.32266 0.107956 0.0 
0.160187 0.0416631 0.0 
1.09237 0.0114927 0.0 
1.00858 0.000172968 0.0 
1.00051 0.000590152 0.0 
8.79205e-72 1.46323e-71 0.0 
1.01016 0.00134755 0.0 
6.97118e-06 7.66298e-07 0.0 
0.685707 -0.00609399 0.0 
0 0 0.0 
0.00505155 0.000502729 0.0 
1.00005 0.00161987 0.0 
0.770586 -0.234427 0.0 
0.0106792 0.000798351 0.0 
0.968668 -0.341737 0.0 
1.01323 -0.0150614 0.0 
0.00295391 -0.000316123 0.0 
0.826681 -0.361308 0.0 
0.144208 0.16775 0.0 
0.0717868 0.0019891 0.0 
0.849779 0.330647 0.0 
0.846144 -0.0288937 0.0 
0.0899948 0.0140793 0.0 
1.00921 0.000285681 0.0 
0.974649 0.175637 0.0 
0.83915 0.349258 0.0 
0.561435 -0.208199 0.0 
0.806093 0.16549 0.0 
1.12765 0.0490216 0.0 
0.0629598 -0.00778957 0.0 
0.687704 -0.154667 0.0 
0.0723825 -0.00826202 0.0 
1.01104 -0.00134714 0.0 
0.243677 0.238065 0.0 
1.00001 -0.000536966 0.0 
1.00812 -0.000688163 0.0 
0.595331 -0.0258918 0.0 
0.616215 -0.116969 0.0 
0.986724 -0.0058927 0.0 
-1.37479e-17 3.66503e-18 0.0 
0.5635 0.054857 0.0 
6.27075e-05 -8.26869e-06 0.0 
0.126261 0.0778306 0.0 
0.158376 -0.25203 0.0 
1.00165 0.00392235 0.0 
0.0716171 0.0049649 0.0 
5.71395e-11 1.36645e-11 0.0 
0.0258116 0.00663987 0.0 
1.05846 0.00629388 0.0 
0 0 0.0 
0.999658 -0.000240099 0.0 
0.726784 0.00234649 0.0 
0 0 0.0 
0.655873 0.00868617 0.0 
-1.26146e-129 -1.36766e-130 0.0 
0.843432 0.342078 0.0 
0.419563 -0.0190085 0.0 
1.00096e-57 1.39228e-58 0.0 
0.00124134 -9.76521e-05 0.0 
0.353806 0.0903366 0.0 
0.742416 0.302054 0.0 
0.619287 0.010692 0.0 
1.04805 -0.0726695 0.0 
0.151778 0.00085719 0.0 
0.109572 -0.0106336 0.0 
0 0 0.0 
1.00986 -0.00192744 0.0 
0.0760044 0.0155609 0.0 
0.859437 -0.402629 0.0 
0.029516 0.000986352 0.0 
1.008 8.42312e-05 0.0 
1.83423e-06 2.04663e-06 0.0 
0.0237329 0.00474883 0.0 
0.702949 0.0126361 0.0 
1.01206 -0.00198495 0.0 
0.678088 -0.367686 0.0 
1.00492 0.00113501 0.0 
1.01011 0.000660262 0.0 
0.593634 -0.143479 0.0 
3.3651e-60 -3.61157e-62 0.0 
0.0219368 -0.000729613 0.0 
7.24696e-05 -9.20665e-06 0.0 
0.841167 0.0244181 0.0 
1.00924 0.000223222 0.0 
0.995779 0.00206052 0.0 
1.00053 0.004288 0.0 
0.0713523 0.00630677 0.0 
-6.26959e-306 9.95324e-307 0.0 
0.999951 -0.000488374 0.0 
4.47617e-34 1.19584e-35 0.0 
0.993291 0.00978958 0.0 
0.233044 0.00976497 0.0 
0.909509 0.179784 0.0 
0.311694 -0.26249 0.0 
0.0328569 -0.00535747 0.0 
1.00498 -0.00288111 0.0 
1.93516e-216 2.26261e-217 0.0 
0.470186 -0.0258621 0.0 
1.00859 -0.00103383 0.0 
0.00693106 0.000711533 0.0 
0.0376362 -0.00868513 0.0 
0.58472 -0.00131511 0.0 
2.72493e-28 -2.18758e-29 0.0 
0.151947 0.00829947 0.0 
0.00847188 0.000608982 0.0 
0.0257873 -0.000563698 0.0 
0.0269682 0.000949393 0.0 
1.01044 -0.00339585 0.0 
4.18847e-07 -4.31591e-09 0.0 
0.185895 -0.0411507 0.0 
1.00914 -0.000157866 0.0 
0.402495 0.0747343 0.0 
0.494548 0.23559 0.0 
6.05569e-228 7.0804e-229 0.0 
0.415761 -0.0389527 0.0 
0.995119 -0.0241778 0.0 
0.0660591 0.0142374 0.0 
0.884208 -0.0144381 0.0 
0.221656 -0.0119369 0.0 
0.0210591 -0.010284 0.0 
1.01051 0.00755654 0.0 
0.998866 -0.000153099 0.0 
0.316521 -0.0274572 0.0 
6.05546e-05 -9.60999e-07 0.0 
0 0 0.0 
0.747262 -0.262587 0.0 
1.00955 0.000520654 0.0 
0.0284999 -0.0087362 0.0 
0.0234632 -0.0044751 0.0 
0.999827 -0.00101365 0.0 
0.835744 0.000284656 0.0 
0.0389126 0.00236964 0.0 
8.52504e-272 1.16606e-272 0.0 
0.87149 0.0281419 0.0 
0.00368315 0.000180277 0.0 
0.34778 0.0877902 0.0 
0.284477 -0.0317637 0.0 
1.00995 0.000805949 0.0 
1.00388 0.00268706 0.0 
0.0408765 -0.00020042 0.0 
0.00245473 -2.47268e-05 0.0 
0.290496 0.0583553 0.0 
0.906596 -0.391521 0.0 
-1.90149e-22 -2.12203e-22 0.0 
0.838527 -0.332048 0.0 
0.0363375 -0.0103166 0.0 
0.120797 0.0110103 0.0 
1.00287 0.000563536 0.0 
1.00689 -0.000235266 0.0 
1.01512 0.00247541 0.0 
3.32069e-268 1.05361e-268 0.0 
0.784231 -0.277423 0.0 
0.911138 -0.0639366 0.0 
1.00863 -0.000963656 0.0 
0.000116104 -5.99133e-06 0.0 
0.190818 -0.0215572 0.0 
0.00288166 -0.000532508 0.0 
0.0292327 0.00910859 0.0 
0.0468756 0.000509007 0.0 
0.107335 0.0159349 0.0 
0.00527302 0.000720856 0.0 
0.000170585 1.44373e-05 0.0 
0.155387 0.0223295 0.0 
0.00521688 -2.58668e-06 0.0 
8.47578e-194 9.91001e-195 0.0 
3.49795e-118 2.59813e-119 0.0 
1.08821 0.110182 0.0 
0.837258 -0.419729 0.0 
1.0075 -0.000525714 0.0 
0 0 0.0 
0.836366 -0.418625 0.0 
0.632212 0.285437 0.0 
0.0482077 -0.0167108 0.0 
0.0126426 0.00099311 0.0 
0.00484924 -0.000604211 0.0 
0.0919774 -0.0185345 0.0 
0.999952 0.00142426 0.0 
0.999616 -0.000488709 0.0 
8.4165e-05 -4.63902e-06 0.0 
0.00711476 6.18374e-05 0.0 
1.00969 0.00131947 0.0 
-6.51347e-96 -3.30514e-96 0.0 
1.06789e-07 -1.09075e-08 0.0 
0.999985 -0.000596248 0.0 
0.0192562 -0.0105338 0.0 
0.571635 0.0109297 0.0 
0.653595 -0.353533 0.0 
0.229988 0.0213713 0.0 
0.130337 -0.0199586 0.0 
0.123717 0.0200093 0.0 
0.000962259 3.55363e-05 0.0 
0.0435194 0.00153131 0.0 
0.999909 -0.000720558 0.0 
3.33416e-50 -1.53416e-51 0.0 
0.910209 -0.0271399 0.0 
0.0136067 0.000181103 0.0 
0 0 0.0 
0.516437 -0.0781452 0.0 
0.0133833 -0.00450645 0.0 
1.11951 0.139645 0.0 
1.00425 -0.00414449 0.0 
0.229753 -0.0353439 0.0 
0.77355 0.0635499 0.0 
0.839588 0.147667 0.0 
1.00657 -0.000132216 0.0 
1.00815 -0.00121278 0.0 
4.88559e-34 3.61964e-35 0.0 
1.00159 0.00189861 0.0 
5.02827e-06 -3.16313e-07 0.0 
1.01076 0.0033432 0.0 
0.567786 -0.065843 0.0 
0 0 0.0 
0.999939 -0.00134156 0.0 
0.241268 0.0269032 0.0 
3.03097e-35 3.05748e-36 0.0 
0.00323243 -0.000105614 0.0 
0.858216 -0.00458611 0.0 
0.00416662 0.000666847 0.0 
0.0474216 -0.000471188 0.0 
0.0278927 -0.00368484 0.0 
0.965414 -0.00393449 0.0 
1.00856 0.000248232 0.0 
1.11716 0.0978208 0.0 
0.000412385 -1.31124e-06 0.0 
0.0900081 0.0178853 0.0 
0.0038968 -0.000305578 0.0 
1.00789 0.000270928 0.0 
0.99921 -0.00157085 0.0 
1.89048e-23 -2.71994e-24 0.0 
0.208116 0.0253014 0.0 
0.0633221 -0.0130596 0.0 
1.01917 -0.261477 0.0 
0.0141225 0.00116627 0.0 
0.142943 -0.120762 0.0 
1.00742 0.000243984 0.0 
0.0963655 0.0158231 0.0 
0.25251 0.13734 0.0 
1.0065 0 0.0 
0 0 0.0 
1.00685 -0.000485647 0.0 
0.0803507 -0.0122127 0.0 
0 0 0.0 
1.00908 -0.0012874 0.0 
0.0256671 -0.00741975 0.0 
1.00809 0.000215698 0.0 
0.700586 -0.0388141 0.0 
1.00263 -0.0030329 0.0 
0.0205615 9.08403e-05 0.0 
1.007 -0.000345597 0.0 
0 0 0.0 
0.0262756 0.00187896 0.0 
0.0136343 8.14428e-05 0.0 
0.0572474 0.00967918 0.0 
0.211969 -0.0687161 0.0 
1.00928 -0.00688598 0.0 
0 0 0.0 
2.28073e-198 2.66667e-199 0.0 
1.00791 5.36343e-05 0.0 
0.755499 0.349432 0.0 
0.385308 -0.0471288 0.0 
0.00398407 0.000270354 0.0 
1.05214 -0.0487802 0.0 
0.0200463 0.0344558 0.0 
0.694991 0.0669059 0.0 
0.0115624 0.000986551 0.0 
0.999691 -0.00198825 0.0 
0.875303 0.32804 0.0 
0.793043 -0.251241 0.0 
1.00232 0.00489509 0.0 
0.696288 -0.339031 0.0 
0.765583 0.11892 0.0 