<VTKFile type="UnstructuredGrid" version="0.1" byte_order="LittleEndian">
  <UnstructuredGrid>
    <Piece NumberOfPoints="13193" NumberOfCells="26225">
      <Points>
        <DataArray type = "Float64" NumberOfComponents="3" format="ascii">
0 0 0.0 
14 0 0.0 
14 8 0.0 
0 8 0.0 
4.16782 4.09801 0.0 
4.63238 3.98064 0.0 
4.35276 4.07467 0.0 
4.11952 3.95979 0.0 
4.015 3.98562 0.0 
4.22868 3.96433 0.0 
4.08912 4.02807 0.0 
4.37096 4.06778 0.0 
4.33592 4.0755 0.0 
4.20715 3.97737 0.0 
4.71086 3.97686 0.0 
4.73721 3.98691 0.0 
4.04003 3.97377 0.0 
3.96554 4.00011 0.0 
4.41467 3.95754 0.0 
4.14864 4.04153 0.0 
4.61611 3.97887 0.0 
4.97401 4.00648 0.0 
4.09201 3.95624 0.0 
5.70085 3.85517 0.0 
4.01323 3.99894 0.0 
4.94722 3.92923 0.0 
4.25007 4.10489 0.0 
4.31917 4.05768 0.0 
4.88287 4.02218 0.0 
4.10494 3.9702 0.0 
5.05801 3.99985 0.0 
4.00962 4.08349 0.0 
3.95965 3.9291 0.0 
4.56694 4.04774 0.0 
4.3826 3.93601 0.0 
4.62491 4.18156 0.0 
4.1119 3.93738 0.0 
4.39811 4.09409 0.0 
4.45767 4.05521 0.0 
4.31 4.04966 0.0 
4.67061 3.98335 0.0 
4.34508 4.08154 0.0 
4.17759 3.97818 0.0 
3.9464 4.01382 0.0 
4.09533 4.03459 0.0 
4.00922 3.99881 0.0 
4.8237 4.02956 0.0 
4.94325 4.01204 0.0 
4.61792 3.96158 0.0 
4.36731 4.05544 0.0 
4.00665 4.01216 0.0 
4.10445 4.07203 0.0 
5.16321 3.91641 0.0 
3.93682 3.99751 0.0 
4.11094 4.03801 0.0 
4.94362 4.01259 0.0 
10.6684 7.55729 0.0 
4.19353 4.07857 0.0 
3.99355 3.9371 0.0 
4.06066 3.97399 0.0 
4.46475 4.06799 0.0 
4.39562 3.97137 0.0 
4.24845 4.07301 0.0 
4.00381 4.03411 0.0 
4.10252 3.95063 0.0 
4.59184 3.96069 0.0 
4.85133 3.96603 0.0 
4.57907 3.96188 0.0 
4.96135 4.01995 0.0 
3.83194 4.08087 0.0 
4.96467 4.01773 0.0 
4.04324 3.98528 0.0 
5.0288 3.94616 0.0 
4.18533 3.96482 0.0 
4.96507 4.02144 0.0 
3.8452 4.14775 0.0 
4.09301 4.04838 0.0 
4.2593 4.09637 0.0 
4.01647 3.99236 0.0 
3.99883 4.00817 0.0 
4.72126 3.98225 0.0 
5.44498 5.19845 0.0 
4.20971 4.06895 0.0 
4.66841 4.06217 0.0 
4.73654 3.98471 0.0 
0 6.15459 0.0 
4.0192 3.99331 0.0 
5.05988 4.09143 0.0 
4.21452 4.09342 0.0 
4.97524 4.02614 0.0 
7.69986 0 0.0 
4.00955 3.98517 0.0 
5.00785 4.00312 0.0 
10.8833 7.73481 0.0 
4.20488 4.08601 0.0 
4.13385 3.95719 0.0 
14 6.11123 0.0 
4.17782 3.95315 0.0 
3.99379 4.00703 0.0 
3.96293 3.99513 0.0 
4.7427 3.98725 0.0 
4.07307 3.94777 0.0 
4.43684 3.97206 0.0 
4.80603 3.95603 0.0 
4.06336 4.08174 0.0 
4.20195 4.06592 0.0 
3.88293 4.06948 0.0 
4.65212 4.06071 0.0 
4.82722 4.04371 0.0 
4.23788 4.086 0.0 
4.52445 4.0607 0.0 
4.71623 4.07909 0.0 
5.03684 4.01469 0.0 
4.8234 3.98945 0.0 
4.00418 3.99483 0.0 
4.01965 4.03223 0.0 
4.0152 4.00142 0.0 
4.42799 3.96703 0.0 
4.27964 3.95178 0.0 
4.73509 4.04119 0.0 
14 5.21618 0.0 
4.09782 3.95912 0.0 
4.60672 4.05567 0.0 
4.18964 3.9825 0.0 
4.20746 4.07011 0.0 
4.28749 4.07809 0.0 
3.94943 3.96456 0.0 
4.17387 3.99146 0.0 
4.49628 4.10215 0.0 
4.24552 4.07113 0.0 
4.886 4.00758 0.0 
4.32429 4.08681 0.0 
4.46627 3.97346 0.0 
4.25102 3.95497 0.0 
4.84545 3.99171 0.0 
0.581222 4.47887 0.0 
4.39928 3.97199 0.0 
4.07182 4.03637 0.0 
5.73054 4.62286 0.0 
4.06394 3.97478 0.0 
4.86153 4.03033 0.0 
4.05348 4.07845 0.0 
4.81084 4.0108 0.0 
5.06864 4.00092 0.0 
3.05817 4.59047 0.0 
3.99342 4.00186 0.0 
4.57871 4.08068 0.0 
4.34604 4.08406 0.0 
4.37798 8 0.0 
4.12623 4.0709 0.0 
4.08373 4.05666 0.0 
4.09568 4.05562 0.0 
4.15325 4.03969 0.0 
4.33046 3.95323 0.0 
4.27852 0 0.0 
5.04845 4.04311 0.0 
4.29262 4.07791 0.0 
4.08008 3.9656 0.0 
6.14814 4.02317 0.0 
4.36637 3.96967 0.0 
4.01185 3.98713 0.0 
4.52021 3.95928 0.0 
4.91464 4.0046 0.0 
4.05096 4.01373 0.0 
4.70266 8 0.0 
4.26548 4.05787 0.0 
4.04836 4.00644 0.0 
4.01757 4.01026 0.0 
4.52489 3.95672 0.0 
4.89442 4.1677 0.0 
4.13425 4.07811 0.0 
4.19766 3.93669 0.0 
4.36359 3.95657 0.0 
4.61427 3.96413 0.0 
5.11295 3.90338 0.0 
4.1741 4.07586 0.0 
4.32616 4.09061 0.0 
4.80766 4.01474 0.0 
4.89032 4.03847 0.0 
5.0876 4.02602 0.0 
4.58178 3.97926 0.0 
3.90836 3.898 0.0 
3.91308 3.93643 0.0 
4.55668 4.05035 0.0 
3.91267 2.38613 0.0 
4.02873 4.0411 0.0 
4.03474 4.00368 0.0 
3.99865 3.97733 0.0 
4.29787 4.08601 0.0 
4.08859 4.05676 0.0 
3.97661 4.05846 0.0 
4.40453 4.05384 0.0 
4.30615 3.96016 0.0 
4.02547 4.02458 0.0 
4.12124 3.98374 0.0 
4.21971 3.98354 0.0 
4.96802 4.01909 0.0 
4.08226 3.93581 0.0 
4.17912 4.05461 0.0 
0.584774 1.3012 0.0 
4.06902 3.98443 0.0 
4.51798 3.97634 0.0 
4.99458 4.03862 0.0 
4.38919 4.13624 0.0 
4.00158 4.00435 0.0 
4.3599 3.98315 0.0 
4.1829 4.06659 0.0 
4.12635 4.07409 0.0 
0 1.4212 0.0 
4.93524 6.22209 0.0 
4.8762 4.04179 0.0 
4.18679 4.08465 0.0 
4.22225 3.96601 0.0 
4.4437 4.06642 0.0 
4.12681 4.04136 0.0 
4.02777 4.06274 0.0 
4.82165 4.0142 0.0 
4.25777 4.07923 0.0 
4.3835 4.11301 0.0 
4.03295 3.99414 0.0 
4.73524 4.04357 0.0 
4.0644 3.93891 0.0 
4.33589 3.95158 0.0 
4.16503 4.11076 0.0 
4.21025 3.93615 0.0 
12.0984 8 0.0 
3.92866 4.03401 0.0 
4.19206 3.91938 0.0 
4.05286 3.93495 0.0 
3.96023 4.01528 0.0 
4.09641 3.95124 0.0 
4.12454 3.92729 0.0 
4.59973 2.2194 0.0 
4.08491 4.0641 0.0 
3.96293 4.03138 0.0 
3.94576 4.12556 0.0 
4.06298 3.99231 0.0 
4.68523 4.05551 0.0 
4.19366 3.95089 0.0 
4.59641 3.96551 0.0 
4.21125 3.95113 0.0 
3.99252 4.00665 0.0 
4.54389 4.06099 0.0 
4.17636 4.06982 0.0 
4.01378 4.004 0.0 
4.32592 4.06807 0.0 
3.94066 3.96869 0.0 
4.16731 4.07557 0.0 
4.02231 3.98111 0.0 
3.95819 3.97698 0.0 
4.71203 3.98335 0.0 
4.55964 4.0527 0.0 
4.07495 4.07827 0.0 
4.22095 4.06329 0.0 
4.54783 4.09596 0.0 
4.15636 4.04974 0.0 
3.95778 3.98461 0.0 
4.28005 3.9678 0.0 
3.9419 3.97853 0.0 
4.00418 4.00381 0.0 
4.19018 4.05306 0.0 
3.97727 3.94993 0.0 
4.10081 3.94382 0.0 
4.2182 4.0641 0.0 
4.69463 4.07217 0.0 
4.00327 3.99438 0.0 
4.48458 3.97501 0.0 
4.47105 4.06681 0.0 
4.88095 4.00731 0.0 
10.8355 3.51217 0.0 
5.00368 4.02219 0.0 
4.41714 4.06914 0.0 
3.9771 4.03148 0.0 
3.97168 3.87852 0.0 
4.60159 3.94901 0.0 
3.87689 4.36415 0.0 
4.15561 4.10177 0.0 
4.18309 4.12442 0.0 
3.96476 4.03852 0.0 
4.70567 3.82482 0.0 
4.18744 4.07562 0.0 
4.01744 4.0121 0.0 
4.25641 4.04704 0.0 
3.96822 4.02719 0.0 
3.97233 4.04194 0.0 
3.98573 3.91699 0.0 
4.74413 3.98474 0.0 
6.81022 4.46968 0.0 
4.23154 4.07931 0.0 
4.23987 3.99243 0.0 
4.20876 3.92492 0.0 
3.92251 4.00785 0.0 
4.43052 2.01385 0.0 
4.22899 4.0812 0.0 
3.94409 3.86409 0.0 
4.76982 3.98778 0.0 
4.30498 3.95249 0.0 
4.3849 4.08353 0.0 
4.33894 4.08186 0.0 
5.06803 3.97618 0.0 
4.05765 3.97132 0.0 
4.30838 4.04221 0.0 
3.94564 3.99975 0.0 
4.39174 4.08409 0.0 
4.32967 3.96788 0.0 
4.58196 4.03482 0.0 
5.05259 3.95735 0.0 
5.0401 4.02083 0.0 
4.98371 4.01321 0.0 
4.35255 4.06175 0.0 
4.44113 3.92357 0.0 
4.52064 4.08001 0.0 
5.48308 4.09648 0.0 
4.97402 4.14544 0.0 
4.27301 4.09229 0.0 
2.53508 4.64206 0.0 
11.7013 4.10211 0.0 
4.97983 4.00671 0.0 
4.14028 3.95384 0.0 
4.82586 4.05187 0.0 
5.376 3.89288 0.0 
4.1384 3.95607 0.0 
4.29226 4.09769 0.0 
4.64938 3.95383 0.0 
4.5533 4.04791 0.0 
4.91986 4.01661 0.0 
4.36894 4.08372 0.0 
4.29519 3.94158 0.0 
4.45715 5.46424 0.0 
4.05408 3.9411 0.0 
5.07647 3.96452 0.0 
4.02341 4.03456 0.0 
4.29178 4.03827 0.0 
4.52724 7.41561 0.0 
5.05919 4.01855 0.0 
4.22973 3.95422 0.0 
4.55513 4.04031 0.0 
13.3549 8 0.0 
4.32085 3.96868 0.0 
4.0339 4.05256 0.0 
4.14581 4.04395 0.0 
3.82319 4.11397 0.0 
4.4637 3.97341 0.0 
4.70094 3.97741 0.0 
4.23759 4.08946 0.0 
4.30242 3.94915 0.0 
4.37221 3.9709 0.0 
4.2137 3.98024 0.0 
4.84919 4.03782 0.0 
1.24078 0.550265 0.0 
4.99085 4.01035 0.0 
4.06519 4.02486 0.0 
3.99922 3.99464 0.0 
4.2889 4.06302 0.0 
2.38032 0.204862 0.0 
4.01551 4.02065 0.0 
9.1005 7.43296 0.0 
4.87081 3.99098 0.0 
4.25891 4.07338 0.0 
4.02651 3.98657 0.0 
4.31481 3.93764 0.0 
4.41504 3.93981 0.0 
4.06234 3.9498 0.0 
4.01517 4.03055 0.0 
4.26022 3.94165 0.0 
4.04734 4.04874 0.0 
4.36563 4.07339 0.0 
4.10007 3.96946 0.0 
4.02246 4.02836 0.0 
4.79755 3.97497 0.0 
3.99908 3.98836 0.0 
4.88044 0 0.0 
4.12151 3.94609 0.0 
5.14043 4.17282 0.0 
4.07858 3.96721 0.0 
4.84765 4.02892 0.0 
4.03059 3.99519 0.0 
5.01049 4.01163 0.0 
3.92907 3.89532 0.0 
4.00442 4.011 0.0 
4.97222 4.02124 0.0 
6.35396 2.45877 0.0 
4.48067 4.05301 0.0 
4.12673 3.95742 0.0 
4.81194 4.05137 0.0 
4.35005 4.09252 0.0 
4.2163 3.94824 0.0 
4.04195 3.99898 0.0 
4.22957 3.95099 0.0 
4.7946 4.03481 0.0 
3.68344 1.80592 0.0 
3.83316 3.32871 0.0 
5.13054 4.0462 0.0 
4.26231 3.99235 0.0 
4.61442 3.95751 0.0 
4.83857 4.045 0.0 
4.09033 4.05486 0.0 
5.00671 4.01055 0.0 
4.16261 4.05794 0.0 
4.63793 4.05336 0.0 
5.02581 4.11121 0.0 
4.34353 4.07031 0.0 
4.12408 3.94161 0.0 
4.07401 3.9833 0.0 
4.25029 3.96559 0.0 
4.26004 3.94534 0.0 
4.47365 4.114 0.0 
5.04726 4.00417 0.0 
4.79917 4.0339 0.0 
4.89638 3.9929 0.0 
4.77163 3.98754 0.0 
4.51519 4.0859 0.0 
5.1855 4.1465 0.0 
4.71034 4.04392 0.0 
4.66775 4.07119 0.0 
9.45156 3.04016 0.0 
4.93449 3.96057 0.0 
4.0672 3.97054 0.0 
4.15458 4.07956 0.0 
3.91833 4.06784 0.0 
5.40943 0.988379 0.0 
4.0111 3.92417 0.0 
4.59977 3.97073 0.0 
4.01488 3.98469 0.0 
4.0062 4.04545 0.0 
4.39793 4.06483 0.0 
4.06315 3.97119 0.0 
4.36279 4.07512 0.0 
4.51983 4.11882 0.0 
4.255 4.06007 0.0 
4.31496 3.9452 0.0 
3.99013 3.94414 0.0 
4.30661 4.08755 0.0 
4.30211 3.98484 0.0 
4.28455 3.96683 0.0 
4.5124 3.97481 0.0 
4.17983 4.0788 0.0 
4.28956 4.04275 0.0 
3.4892 4.85133 0.0 
4.76749 2.42818 0.0 
4.2489 4.09629 0.0 
5.06347 3.99507 0.0 
4.27544 4.05008 0.0 
0.5357 7.34966 0.0 
4.32398 4.05563 0.0 
5.08198 4.04957 0.0 
4.48501 4.07338 0.0 
5.02947 4.00625 0.0 
4.07499 3.95628 0.0 
4.00146 3.99243 0.0 
4.81869 3.98962 0.0 
4.937 4.00433 0.0 
4.39999 3.97145 0.0 
6.91256 3.08935 0.0 
5.00319 4.00393 0.0 
4.84362 3.99017 0.0 
8.18508 0.217596 0.0 
4.33336 4.19661 0.0 
4.54097 3.97559 0.0 
3.99883 4.01382 0.0 
4.03475 4.04591 0.0 
5.3535 3.77921 0.0 
4.08942 3.95104 0.0 
4.22944 4.07705 0.0 
4.33753 3.96864 0.0 
4.30181 4.08029 0.0 
4.01165 4.04753 0.0 
7.9593 4.99211 0.0 
5.15422 3.9808 0.0 
4.20762 4.05474 0.0 
4.20227 4.08039 0.0 
4.23985 4.08128 0.0 
4.31051 4.0737 0.0 
4.02669 4.10937 0.0 
[...]
<PointData>
  <DataArray type = "Float64" Name="Vitesse" NumberOfComponents="3" format="ascii">
1 0 0.0 
1.00016 0 0.0 
0.999897 0 0.0 
1 0 0.0 
1.03259 0.172313 0.0 
0.0107434 0.000650187 0.0 
0.13239 -0.000300512 0.0 
0.341759 -0.0273749 0.0 
1.1302e-07 -5.38993e-08 0.0 
0.0738553 -0.0012278 0.0 
0 0 0.0 
3.24112e-07 -1.45184e-08 0.0 
0.159282 0.00279649 0.0 
-9.43378e-234 -4.92414e-236 0.0 
0.0867113 0.00396151 0.0 
0.000308277 3.06038e-05 0.0 
0.300409 -0.0729677 0.0 
0.6466 -0.0606045 0.0 
0.21916 0.00509848 0.0 
-5.68271e-271 -4.95807e-272 0.0 
0.0224635 0.00136298 0.0 
0.00202707 -0.00033686 0.0 
0.614263 -0.0801778 0.0 
0.894495 -0.00468565 0.0 
0 0 0.0 
0.656011 0.028225 0.0 
0.953865 0.09755 0.0 
0 0 0.0 
0.0056228 -0.000722381 0.0 
-2.23293e-13 1.68498e-14 0.0 
0.102804 0.0105678 0.0 
0.880833 0.242643 0.0 
0.874501 -0.164266 0.0 
3.12607e-208 -1.88614e-209 0.0 
0.573103 0.00197876 0.0 
1.10229 -0.0158651 0.0 
0.984862 -0.133314 0.0 
0.528306 0.00457499 0.0 
3.64492e-51 -3.7757e-52 0.0 
1.78769e-299 6.68759e-301 0.0 
-6.52128e-14 -5.98005e-15 0.0 
0.296261 0.00374814 0.0 
0 0 0.0 
0.732399 0.00663496 0.0 
0 0 0.0 
0 0 0.0 
0.000168334 -1.29291e-05 0.0 
0.00304228 -0.000512858 0.0 
0.222604 0.00847972 0.0 
0 0 0.0 
2.21225e-12 1.91798e-12 0.0 
0.883317 0.211722 0.0 
0.763025 0.0423544 0.0 
0.763949 -0.0404959 0.0 
0 0 0.0 
0.0046655 -0.000760936 0.0 
1.00005 -8.62521e-05 0.0 
0.574821 0.073174 0.0 
0.901217 -0.244538 0.0 
0.0471049 -0.00268345 0.0 
0.0432083 0.000101152 0.0 
0.00810442 0.000689309 0.0 
0.214642 0.0173143 0.0 
0.67667 0.351643 0.0 
0.736499 -0.0925871 0.0 
0.224493 0.00854682 0.0 
0.256341 0.0113224 0.0 
0.205391 0.00803879 0.0 
0.0384439 -0.00556565 0.0 
0.90256 0.0342316 0.0 
0.0312547 -0.00470518 0.0 
-6.99222e-254 1.21058e-254 0.0 
0.518529 0.0377455 0.0 
0.0743538 0.000833048 0.0 
0.0469724 -0.00674046 0.0 
0.923319 0.059413 0.0 
0.11525 0.0362192 0.0 
0.792709 0.0706151 0.0 
0 0 0.0 
0.135342 0.14201 0.0 
0.0362408 0.00229586 0.0 
1.01939 -0.00903541 0.0 
0.196876 0.0181914 0.0 
0.12796 -0.0111319 0.0 
0.019211 0.000807365 0.0 
1 0 0.0 
0 0 0.0 
0.665656 -0.0594054 0.0 
0.856334 0.104415 0.0 
0.0760373 -0.011005 0.0 
1.0035 0 0.0 
0.330915 -0.205592 0.0 
0.0251563 -0.00380194 0.0 
1.00003 -4.22719e-05 0.0 
0.728666 0.0910334 0.0 
0.382724 -0.0271968 0.0 
0.999906 -3.15265e-07 0.0 
0.396066 -0.016351 0.0 
0.252902 0.0677734 0.0 
0.67169 -0.0841906 0.0 
0.000256757 2.04942e-05 0.0 
0.965345 -0.18661 0.0 
0.0153513 0.000897021 0.0 
0.345878 0.0138022 0.0 
0.99299 0.287121 0.0 
0.124884 0.0140098 0.0 
0.870201 0.0487382 0.0 
0.0989271 -0.00874269 0.0 
0.088257 -0.0102313 0.0 
0.614054 0.0583295 0.0 
0.000533388 -5.34472e-05 0.0 
0.360339 -0.0270135 0.0 
0.0687772 -0.00832347 0.0 
0.0117572 0.00090011 0.0 
-1.60392e-101 7.65459e-102 0.0 
0.594465 0.309425 0.0 
0 0 0.0 
0.0819676 0.00251298 0.0 
0.326518 -0.00010809 0.0 
3.32755e-05 -2.75312e-06 0.0 
0.999924 1.61935e-05 0.0 
0.468427 -0.0510305 0.0 
0.00714235 -0.000595608 0.0 
6.2548e-287 1.38422e-288 0.0 
0.245369 0.0224568 0.0 
0.278808 0.0113054 0.0 
0.795133 -0.132674 0.0 
5.49695e-294 1.2165e-295 0.0 
0.629298 -0.0111294 0.0 
0.165001 0.0138266 0.0 
-8.50206e-74 1.02308e-74 0.0 
0.444953 0.0167318 0.0 
0.00807931 0.000416311 0.0 
0.272387 -0.00161659 0.0 
-3.90266e-13 -3.03974e-14 0.0 
0.999837 0.000544831 0.0 
0.000491453 2.14977e-05 0.0 
1.88347e-152 4.54611e-153 0.0 
1.03333 -0.00846217 0.0 
1.96195e-08 -4.80697e-09 0.0 
0.0291998 -0.00400391 0.0 
0.972029 0.295521 0.0 
-9.2016e-281 1.81476e-281 0.0 
0.110207 0.0100569 0.0 
0.990931 0.0105956 0.0 
0.232414 -0.102045 0.0 
0.303586 -0.0168255 0.0 
0.354104 0.00613775 0.0 
1.00702 0 0.0 
0.722402 0.145241 0.0 
0.616215 0.165281 0.0 
0.441417 0.107757 0.0 
-2.96333e-273 -2.58545e-274 0.0 
0.28478 0.00351541 0.0 
1.00604 0 0.0 
0.231782 -0.0306175 0.0 
0.264265 0.0112782 0.0 
0.310591 -0.0418656 0.0 
0.691942 -0.019046 0.0 
0.0183297 0.000551829 0.0 
1.5319e-14 -7.31136e-15 0.0 
0.221042 0.00706985 0.0 
1.23952e-75 1.16678e-76 0.0 
0 0 0.0 
1.00724 0 0.0 
-1.04958e-87 -7.19356e-89 0.0 
0 0 0.0 
0 0 0.0 
0.257161 0.00791826 0.0 
1.0481 -0.051703 0.0 
0.856019 0.168987 0.0 
0.757207 -0.0417487 0.0 
0.226519 0.00429876 0.0 
0.190219 0.0074874 0.0 
0.847152 0.0430122 0.0 
0.586478 0.0830427 0.0 
0.531069 0.0213419 0.0 
2.28061e-86 -3.71191e-87 0.0 
0.0959098 -0.0115546 0.0 
0.156334 -0.014434 0.0 
0.00269102 0.000299702 0.0 
0.908174 -0.0964165 0.0 
0.869012 -0.092477 0.0 
2.22838e-209 -3.28036e-211 0.0 
1.00804 -0.0091402 0.0 
0.7353 0.330422 0.0 
0 0 0.0 
0.728202 -0.433051 0.0 
0.466899 0.0246259 0.0 
0.56534 0.146329 0.0 
0.780551 0.18305 0.0 
-1.0649e-238 -1.08284e-240 0.0 
0.158253 0.00169624 0.0 
7.0553e-08 3.75166e-08 0.0 
0 0 0.0 
1.26509e-218 1.52483e-219 0.0 
0.0384847 -0.00574999 0.0 
1.06307 -0.19303 0.0 
0 1e-307 0.0 
1.00006 -0.000395635 0.0 
0 0 0.0 
0.000184768 4.92199e-06 0.0 
0.16613 -0.0231215 0.0 
1.07822 0.0431044 0.0 
2.30654e-166 3.81122e-166 0.0 
6.04131e-102 5.20613e-103 0.0 
0.226002 0.0261193 0.0 
0.806417 0.165323 0.0 
1 0 0.0 
1.0115 -0.000137336 0.0 
0.109204 -0.0128103 0.0 
0.766278 0.106928 0.0 
0.0381578 0.000353153 0.0 
0.000143923 1.84442e-06 0.0 
-5.98317e-284 -5.22021e-285 0.0 
0.88963 0.322699 0.0 
-3.50454e-72 4.21712e-73 0.0 
0.373986 0.0279947 0.0 
0.871137 0.0272918 0.0 
0 0 0.0 
0.0162315 -0.00182021 0.0 
1.06164 -0.228318 0.0 
0.314259 0.00349951 0.0 
1.0931 0.18444 0.0 
0.743204 -0.036576 0.0 
0.999932 0 0.0 
0.794017 0.0424847 0.0 
1.0188 -0.0779359 0.0 
1.05618 -0.246118 0.0 
0.678588 0.0233229 0.0 
0.753203 -0.101661 0.0 
1.05492 -0.134508 0.0 
1.01245 -0.00416309 0.0 
0.829029 0.227073 0.0 
0.70699 0.0945409 0.0 
0.899072 0.123278 0.0 
0 0 0.0 
0.0741594 -0.00758182 0.0 
0.427966 -0.0158373 0.0 
0.166653 0.00685657 0.0 
0.39688 -0.010552 0.0 
0.283184 0.0438235 0.0 
0.00816689 -0.000466791 0.0 
0.375504 0.0480391 0.0 
0 0 0.0 
1.52181e-42 1.22911e-43 0.0 
0.798221 -0.107614 0.0 
0.613539 0.0913644 0.0 
0.161115 -0.0524844 0.0 
0.74356 -0.136763 0.0 
0.0209017 0.00132803 0.0 
1.55565e-60 -9.27807e-62 0.0 
1.00255 0.283409 0.0 
3.22859e-07 5.16084e-08 0.0 
0.527498 -0.0188845 0.0 
-9.962e-231 -8.78592e-232 0.0 
0.720784 -0.114205 0.0 
0.0133764 0.000648069 0.0 
0.77599 -0.0925397 0.0 
7.98025e-184 9.32316e-184 0.0 
0 0 0.0 
0.835573 -0.223805 0.0 
0.915352 -0.131254 0.0 
0.000385115 7.12799e-05 0.0 
0.261741 -0.0207742 0.0 
1.38802e-71 -1.14208e-71 0.0 
0.00151873 9.6455e-05 0.0 
0.0286894 -0.00262556 0.0 
-7.60576e-74 9.15224e-75 0.0 
0.999748 0.000447365 0.0 
0.0714051 -0.0179831 0.0 
0.0315956 -1.13644e-05 0.0 
0.661812 0.153659 0.0 
0.945612 -0.144715 0.0 
0.376744 0.0118229 0.0 
0.983922 0.0620609 0.0 
1.06953 0.191245 0.0 
1.10786 0.167335 0.0 
0.72426 0.119918 0.0 
1.06526 0.00621932 0.0 
0.512682 0.0663694 0.0 
0 0 0.0 
0 0 0.0 
0.673792 0.0979267 0.0 
0.721742 0.154567 0.0 
0.92025 -0.196236 0.0 
0.0219521 0.000862952 0.0 
1.00106 -0.0373664 0.0 
0.449627 0.0409265 0.0 
5.38593e-214 4.70697e-215 0.0 
0.93408 -0.0575176 0.0 
0.793414 -0.0118772 0.0 
1.01025 -0.00431641 0.0 
0.512627 0.0491514 0.0 
0.941121 -0.117285 0.0 
0.00347832 0.000189855 0.0 
0.303398 0.00132655 0.0 
0.316844 0.000428531 0.0 
0.309743 0.00623387 0.0 
0.256276 0.0302277 0.0 
0.213721 -0.0297625 0.0 
6.92543e-302 2.59074e-303 0.0 
0.73693 -0.040894 0.0 
0.326132 0.000455135 0.0 
0.03154 0.00101302 0.0 
-1.28141e-227 7.04337e-229 0.0 
0.419317 0.0380567 0.0 
0.089469 -0.0139228 0.0 
0.0253366 -0.00489739 0.0 
-1.05501e-251 4.31385e-253 0.0 
0.73236 0.00273486 0.0 
0.26562 -0.0117253 0.0 
0.76355 -0.0409814 0.0 
0.986031 -0.0604834 0.0 
0.672316 0.0512561 0.0 
0.995772 0.00578865 0.0 
0.999813 0.00019628 0.0 
0.00478807 -0.000791258 0.0 
0.469824 -0.0328143 0.0 
0.151635 -0.0161104 0.0 
0.854269 0.0195106 0.0 
0.405047 -0.0273283 0.0 
0.745719 0.0505147 0.0 
0.327585 0.0113621 0.0 
-1.08167e-225 -1.30231e-227 0.0 
0.00625938 -0.00086866 0.0 
0.329798 0.00309216 0.0 
0.522623 -0.00494599 0.0 
1.01783 0.00658091 0.0 
1.0551 -0.250837 0.0 
0.361833 0.0360312 0.0 
0.613138 0.304429 0.0 
8.13784e-305 3.04429e-306 0.0 
1.0075 0.000410085 0.0 
0.100555 -0.00880475 0.0 
0.302988 -0.00408552 0.0 
-1.47003e-225 8.07914e-227 0.0 
0.999903 0 0.0 
0.0130988 0.000918714 0.0 
0.868074 0.345488 0.0 
-1.23863e-270 -1.08069e-271 0.0 
0.916285 0.0434231 0.0 
0.00786373 0.000378343 0.0 
0.0765001 0.00373401 0.0 
0.700433 0.069302 0.0 
0.36921 0.000231965 0.0 
0.00313951 0.000151056 0.0 
-6.66986e-198 -3.52051e-199 0.0 
0.0637812 -0.00777296 0.0 
1.00044 -0.000418246 0.0 
0.0211137 -0.00542274 0.0 
0 0 0.0 
0.198884 -0.295864 0.0 
9.49173e-73 6.64071e-74 0.0 
1.00205 -0.000428755 0.0 
0.088647 0.0606086 0.0 
1.00065 -0.000426683 0.0 
0.0185764 0.00118219 0.0 
0.201232 0.0132743 0.0 
-9.96168e-35 3.92417e-35 0.0 
0.582284 -0.00504836 0.0 
0.502216 0.00532839 0.0 
0.978078 -0.213343 0.0 
0.605237 0.336601 0.0 
0.553277 -0.0109693 0.0 
0.748785 0.276048 0.0 
0.103865 0.00138499 0.0 
0.0470623 -0.00151674 0.0 
0.359776 0.184247 0.0 
0.14228 0.00646605 0.0 
0.480652 -0.44815 0.0 
1.0067 0 0.0 
0.770986 -0.0834408 0.0 
1.01948 -0.0591341 0.0 
0.245881 -0.0334554 0.0 
0.0132079 -0.00154966 0.0 
0 0 0.0 
0.0363791 -0.0133876 0.0 
0.911917 -0.114717 0.0 
0.0244994 0.0278991 0.0 
0.0500967 -0.00746951 0.0 
1.00935 0.00804601 0.0 
1.59742e-105 4.45799e-107 0.0 
0.398633 -0.031977 0.0 
0.13717 -0.0147161 0.0 
0.540738 0.0146191 0.0 
0.460143 -0.0130108 0.0 
0 0 0.0 
0.378554 -0.00688215 0.0 
0.0068013 -0.000787242 0.0 
1.00579 -0.00525799 0.0 
1.00273 -0.0295676 0.0 
0.323908 -0.0321191 0.0 
1.68916e-209 1.47622e-210 0.0 
0.271721 0.00983896 0.0 
0.105856 -0.0120757 0.0 
0.466268 0.11848 0.0 
0.0312332 -0.0136694 0.0 
7.72589e-06 7.99004e-07 0.0 
0.0122856 -0.00119142 0.0 
0.812442 -0.0634829 0.0 
0.0333995 -0.00132136 0.0 
0.868309 -0.0976519 0.0 
1e-307 0 0.0 
0.0483312 0.000611087 0.0 
0.475741 -0.0073635 0.0 
0.815179 -0.00150911 0.0 
0.0800047 0.00508144 0.0 
0.00510397 -0.000846254 0.0 
0.011172 0.000583735 0.0 
0.00599696 0.000570007 0.0 
0.359764 -0.013179 0.0 
0.968856 -0.060992 0.0 
4.93953e-34 -1.14119e-35 0.0 
0.231293 -0.0179301 0.0 
0.999647 0.00133144 0.0 
0.345369 0.0165152 0.0 
0.169817 -0.0301495 0.0 
0.790016 0.135321 0.0 
0.842031 0.0747112 0.0 
1.00771 0.000431969 0.0 
0.958678 -0.237677 0.0 
0.106265 0.00486275 0.0 
0.103961 -0.0495791 0.0 
0.762223 0.326285 0.0 
-1.81594e-24 1.3397e-26 0.0 
0.166118 -0.0288312 0.0 
0.142299 0.00229104 0.0 
0.855409 -0.0102262 0.0 
-1.57373e-215 -1.05758e-216 0.0 
0.440231 -0.000258009 0.0 
0.876508 -0.253526 0.0 
0.489893 0.0243231 0.0 
1.03466e-214 1.24686e-215 0.0 
0.0325204 0.000699862 0.0 
0.0153179 0.00156568 0.0 
0.644333 0.0903533 0.0 
0 0 0.0 
0.99784 0.0198825 0.0 
1.01447 -0.00348746 0.0 
0.817242 0.0790712 0.0 
0.126522 0.0155323 0.0 
0 0 0.0 
1.00011 0.000286905 0.0 
0 0 0.0 
0.30859 -0.0358555 0.0 
0.141775 -0.0065583 0.0 
0.0556923 -0.000151031 0.0 
0.734023 -0.127657 0.0 
0.213693 -0.272767 0.0 
0.00879641 0.00023819 0.0 
-1.00179e-59 1.26194e-60 0.0 
0.00828323 0.000298607 0.0 
0.993064 0.00873853 0.0 
0.0166031 -0.0088682 0.0 
0.0135683 0.00104569 0.0 
1.00273 0.00030874 0.0 
1.12031 0.0720686 0.0 
0.021853 0.000979279 0.0 
0.310881 0.264465 0.0 
0.789272 0.325909 0.0 
1.0222 0.00538269 0.0 
0.801298 -0.120351 0.0 
0.389658 0.0344366 0.0 
0.0215572 0.000633333 0.0 
0.315058 0.0151542 0.0 
0.791404 0.340383 0.0 
0.997546 -0.00201632 0.0 
0.277694 0.0271129 0.0 
1.07709e-299 9.36708e-301 0.0 
0.589904 0.0715887 0.0 
0.479752 0.0427068 0.0 
0.133336 0.00325069 0.0 
0.940302 0.22265 0.0 
0.270471 -0.00343756 0.0 
0.000237701 2.39504e-07 0.0 
0.0266949 0.00073521 0.0 
0.503326 -0.0143858 0.0 
0.60783 0.314279 0.0 
-1.89324e-236 1.4833e-237 0.0 
0.51158 0.0388876 0.0 
0.526052 0.0839467 0.0 
0.0917656 -0.00138058 0.0 
0.601779 -0.0404123 0.0 
0.190596 0.025976 0.0 
0.805027 0.248411 0.0 
0.836629 0.355894 0.0 
1.00004 0.00488209 0.0 
3.55981e-06 -1.94147e-07 0.0 
0 0 0.0 
0.487151 -0.0605844 0.0 
0.176254 -0.0076812 0.0 
0.662183 0.0611026 0.0 
0 0 0.0 
0.0650643 -0.00754403 0.0 
0 0 0.0 
1.00155 -0.00109508 0.0 
0.99904 0.0519176 0.0 
0 0 0.0 
0.024665 0.00149768 0.0 
0.0778144 -0.00841456 0.0 
0.000945897 4.05808e-05 0.0 
0 0 0.0 
1.00723 -0.00986885 0.0 
0.203516 -0.0210728 0.0 
0.497115 0.00229578 0.0 
0.0252179 0.00107289 0.0 
0.268951 0.0159634 0.0 
0 0 0.0 
1e-307 0 0.0 
2.4658e-100 -6.5834e-102 0.0 
0.591061 -0.00284409 0.0 
1.00096 0 0.0 
0.414548 0.00345195 0.0 
0.861571 0.0189557 0.0 
0.185957 0.0266199 0.0 
0.768705 0.0358871 0.0 
4.60819e-07 -3.82177e-08 0.0 
0.244803 -0.0210278 0.0 
0.0709123 0.00356486 0.0 
0.800946 -0.139988 0.0 
0.595153 -0.348687 0.0 
0.192547 -0.0185976 0.0 
0.557919 0.0321122 0.0 
1.00619 0 0.0 
0.558514 -0.00782384 0.0 
2.22124e-05 -3.83315e-06 0.0 
0.0889527 0.0049426 0.0 
0.0971579 -0.00725558 0.0 
-3.01635e-46 3.82344e-47 0.0 
1.00907 -0.014308 0.0 
0.00933504 -0.00137448 0.0 
0.759554 0.196041 0.0 
0.506876 -0.04282 0.0 
0.624281 -0.0731498 0.0 
5.83235e-195 5.09711e-196 0.0 
0 0 0.0 
0.777304 0.261163 0.0 
0.790151 -0.0362083 0.0 
0.0882525 -0.0101453 0.0 
0.304352 0.0869832 0.0 
0.59515 0.0595195 0.0 
0 0 0.0 
0.730734 0.346245 0.0 
0 0 0.0 
1.12317 0.115014 0.0 
0.30959 -0.24757 0.0 
1.08691 -0.166828 0.0 
-1.38427e-249 -1.66602e-251 0.0 
0.000972009 -9.37346e-05 0.0 
0.361055 0.00285074 0.0 
0.999901 -5.05642e-06 0.0 
0.0255145 0.00155085 0.0 
0.70387 0.0328679 0.0 
0.0234313 0.000338088 0.0 
-1.04593e-141 -7.34858e-143 0.0 
1.0001 9.99692e-05 0.0 
0.586085 -0.0107647 0.0 
0 0 0.0 
0.791025 -0.0598262 0.0 
0.999712 0.000949642 0.0 
0.415999 0.0299421 0.0 
0.00967483 -0.000903724 0.0 
0.925113 0.0161638 0.0 
0.326996 -0.0284843 0.0 
0.316601 0.00384621 0.0 
3.06942e-05 -5.19427e-06 0.0 
1.00001 -0.00019154 0.0 
6.2416e-83 5.60939e-84 0.0 
0.0894889 -0.00502969 0.0 
0.504507 0.00765562 0.0 
0.150383 -0.00322655 0.0 
0 0 0.0 
-3.3465e-257 1.36835e-258 0.0 
0.709271 -0.379505 0.0 
0.400073 0.0343651 0.0 
0.00459834 -0.000819267 0.0 
0.555165 0.0100782 0.0 
0.00793183 -0.00126308 0.0 
0.0121333 -2.2542e-05 0.0 
0.701369 0.176407 0.0 
0.999892 -3.12393e-05 0.0 
0.276509 0.028539 0.0 
1.07179 0.1178 0.0 
1.00275 -0.00214696 0.0 
-2.27067e-14 -1.47131e-15 0.0 
0.657549 -0.287621 0.0 
0 0 0.0 
1.05785 0.00415809 0.0 
-3.83948e-253 1.56993e-254 0.0 
-1.97712e-250 -2.37948e-252 0.0 
0.472501 0.0369872 0.0 
0.999733 -4.82401e-05 0.0 
0.732195 0.043996 0.0 
0.999864 -6.02166e-06 0.0 
6.95314e-191 -1.05492e-191 0.0 
-3.65571e-273 8.54639e-274 0.0 
0.716331 -0.268875 0.0 
1 0.000139819 0.0 
1.07448 -0.098335 0.0 
0.844755 -0.0737575 0.0 
1.11927e-06 5.13153e-07 0.0 
-3.52549e-289 -3.07593e-290 0.0 
0.417414 -0.0371428 0.0 
0.00607664 0.000731548 0.0 
1.00047 0.00097392 0.0 
7.56602e-41 -5.03705e-42 0.0 
0.712413 -0.00631946 0.0 
0.320215 -0.0396685 0.0 
0.0214307 0.00119074 0.0 
0.716726 0.335629 0.0 
0.0197582 -0.00251977 0.0 
1.06399 -0.104326 0.0 
0.647962 0.254853 0.0 
0.711997 0.269376 0.0 
1.00408 0.00157154 0.0 
0.000856244 -4.74716e-05 0.0 
0.103551 -0.0142147 0.0 
0.983543 0.277177 0.0 
0.981611 -0.0577393 0.0 
0.119898 -0.0196854 0.0 
0 0 0.0 
0.773173 0.12197 0.0 
0.496185 0.0948147 0.0 
0.79569 0.010376 0.0 
0.0404776 -0.000556896 0.0 
0.44841 0.00921166 0.0 
0.226422 0.021093 0.0 
0.998994 -0.000146993 0.0 
0.013506 -0.00154704 0.0 
0.729795 0.0026352 0.0 
0.462219 0.0256095 0.0 
0.999995 -0.000238138 0.0 
0.676948 0.24 0.0 
0 0 0.0 
0.257485 0.000810226 0.0 
0.0178802 0.000746158 0.0 
1.00106 0 0.0 
1.00002 0 0.0 
1.10631 0.129524 0.0 
0.877723 0.291832 0.0 
0.507344 -0.0540319 0.0 
0.710018 0.374281 0.0 
0.931354 0.10364 0.0 
2.57474e-181 -3.90636e-182 0.0 
5.06344e-36 -9.71203e-38 0.0 
0 0 0.0 
0.948818 -0.0531606 0.0 
-4.96872e-275 -4.33512e-276 0.0 
0.14452 0.00598304 0.0 
0.728368 0.306594 0.0 
1.00031 -0.000233992 0.0 
0.982888 -0.0260376 0.0 
0.267227 0.0107463 0.0 
0.318593 0.0341758 0.0 
1.01898 0.00661568 0.0 
1.01426 -0.19479 0.0 
1.0077 -0.000136249 0.0 
0.608832 -0.293724 0.0 
1.00934 0.000333478 0.0 
0.304691 0.00835483 0.0 
1.02094 -0.252537 0.0 
0.0154919 0.000641215 0.0 
0.872824 0.113324 0.0 
0 0 0.0 
0.516742 -0.446335 0.0 
0.156738 -0.00086946 0.0 
1.00186 -0.00310101 0.0 
0.0412375 -0.00518916 0.0 
0.540554 0.100291 0.0 
0.857216 0.150604 0.0 
0 0 0.0 
0.924248 -0.268047 0.0 
0.00693146 0.000110422 0.0 
1.0041 0 0.0 
0.0436947 0.00206502 0.0 
0.16976 0.187506 0.0 
-2.88705e-292 8.13092e-293 0.0 
-8.88724e-16 5.76612e-19 0.0 
0.582137 -0.431168 0.0 
0.0706829 -0.00773399 0.0 
1.00028 0 0.0 
0.99212 -0.0546129 0.0 
0.44926 -0.10284 0.0 
0.541506 -0.0360451 0.0 
0.938433 0.0744976 0.0 
0.869016 -0.00302502 0.0 
1.0755 -0.155752 0.0 
0.000988844 -0.000178414 0.0 
0.729958 0.0547567 0.0 
0.999006 0.00140147 0.0 
4.90112e-44 2.62037e-46 0.0 
0.228711 -0.0219546 0.0 
0.782361 0.364687 0.0 
0.840051 0.139837 0.0 
0.545403 -0.0618071 0.0 
0.99183 0.2557 0.0 
0.235966 0.0100073 0.0 
0.856195 -0.305342 0.0 
0.613661 -0.00449513 0.0 
0 0 0.0 
0.0596578 -0.0235009 0.0 
0.47125 -0.0833139 0.0 
0.957831 -0.0439962 0.0 
0.868248 0.08284 0.0 
0.429384 0.0118063 0.0 
0.742648 -0.064649 0.0 
1 0 0.0 
0.946281 -0.208925 0.0 
0.182024 -0.00708437 0.0 
0.760945 0.37084 0.0 
0.925248 -0.127415 0.0 
9.67681e-228 1.1662e-228 0.0 
0.943186 0.17174 0.0 
0.999595 0.000159539 0.0 
0.715716 0.0255456 0.0 
0.0873266 0.00433844 0.0 
1.0068 0 0.0 
0.749034 0.275532 0.0 
1.04642 0.249673 0.0 
3.49004e-183 2.66929e-184 0.0 
0.9999 -4.50365e-06 0.0 
0.425116 -0.126167 0.0 
1.30421e-05 3.48501e-06 0.0 
0.992375 -0.00901089 0.0 
0.381085 -0.0110733 0.0 
0.153978 0.0188044 0.0 
7.90379e-160 8.04121e-161 0.0 
6.13704e-08 4.6105e-09 0.0 
1.00174 0 0.0 
0 0 0.0 
0.789437 0.316958 0.0 
0.530343 -0.0314567 0.0 
0.4507 -0.0412454 0.0 
0.167823 0.0318264 0.0 
0.299672 -0.0277891 0.0 
-2.6592e-223 -3.20427e-225 0.0 
0.319162 -0.0052871 0.0 
5.35743e-46 -5.54921e-47 0.0 
0.771253 0.362914 0.0 
0.747333 0.0617941 0.0 
-9.88582e-27 1.04812e-27 0.0 
1.00092 0.0024887 0.0 
0.86394 0.350753 0.0 
0.996676 0.00157899 0.0 
0.490684 -0.171198 0.0 
0.815938 0.354067 0.0 
0.0192808 -0.000578891 0.0 
0.999594 -0.00646959 0.0 
0.944655 -0.33604 0.0 
0.572085 -0.0602963 0.0 
0.74501 -0.090123 0.0 
0.805402 -0.0815883 0.0 
0.0106703 -0.00120952 0.0 
0.158123 -0.0004867 0.0 
0.0882525 -0.00370287 0.0 
0.330148 0.0459367 0.0 
1.05489 0.102021 0.0 
0.472882 -0.0463943 0.0 
0 0 0.0 
0.490518 0.179168 0.0 
0.999874 -0.000848466 0.0 
0.0718958 0.00137608 0.0 
0.326993 0.0615899 0.0 
1.02068 -0.00170088 0.0 
0.965064 0.0717448 0.0 
0.160206 -0.0208477 0.0 
0.00341487 -0.000600879 0.0 
0.051328 -0.0101647 0.0 
0.297633 0.00126845 0.0 
0.565606 -0.09522 0.0 
7.46912e-60 -5.78349e-61 0.0 
1.00215 0.00433596 0.0 
0.810002 0.125399 0.0 
0.00554964 -0.0357322 0.0 
1.00523 0 0.0 
0.248314 0.00905187 0.0 
-3.42293e-21 2.04465e-22 0.0 
0.078668 0.00392651 0.0 
0.132987 0.00878223 0.0 
0.999662 -0.000602087 0.0 
0.438806 -0.0449875 0.0 
1.00014 7.0016e-05 0.0 
0.780238 0.134804 0.0 
0.338481 -0.00315187 0.0 
0.90549 0.0656328 0.0 
0.999895 0.00117341 0.0 
0.0936946 -0.00377177 0.0 
1.00129 -0.00265105 0.0 
1.17177e-302 -2.23335e-304 0.0 
-1.90637e-247 -1.93771e-249 0.0 
0.799823 0.0717944 0.0 
1.0003 0 0.0 
0.29873 0.0390499 0.0 
0.113521 -0.00305765 0.0 
0.697458 -0.449915 0.0 
0.767668 0.0859128 0.0 
0.0162603 -0.00161821 0.0 
0.0313461 -0.00159575 0.0 
0 0 0.0 
0 0 0.0 
0.0077077 -0.000867641 0.0 
0.095809 -0.151802 0.0 
0.187866 0.0300964 0.0 
0.772408 -0.291517 0.0 
0.220525 -0.17048 0.0 
1.00279 0.00205388 0.0 
1.00085 -0.000256478 0.0 
0.872829 -0.284109 0.0 
1.02445 -0.0133024 0.0 
0.0401777 -0.0111643 0.0 
0.227223 -0.00132679 0.0 
0 0 0.0 
0.255741 0.00233607 0.0 
0.0656259 -0.00619816 0.0 
0 0 0.0 
0.860549 -0.144717 0.0 
0.0427684 0.0643463 0.0 
0.060747 0.00367397 0.0 
2.88014e-07 -3.32521e-08 0.0 
0.591607 0.079126 0.0 
0.0476174 -0.0164266 0.0 
0.0793996 -0.155072 0.0 
0.0424604 0.00921832 0.0 
0.999811 1.9876e-05 0.0 