<VTKFile type="UnstructuredGrid" version="0.1" byte_order="LittleEndian">
  <UnstructuredGrid>
    <Piece NumberOfPoints="12662" NumberOfCells="25164">
      <Points>
        <DataArray type = "Float64" NumberOfComponents="3" format="ascii">
0 0 0.0 
14 0 0.0 
14 8 0.0 
0 8 0.0 
4.16782 4.09801 0.0 
3.98704 3.95215 0.0 
3.94762 3.86704 0.0 
4.64159 3.91297 0.0 
4.09208 3.95602 0.0 
4.27592 4.05022 0.0 
4.01347 3.99897 0.0 
4.68371 4.04763 0.0 
4.01169 4.01944 0.0 
4.25275 4.1561 0.0 
12.5949 1.78564 0.0 
4.01396 4.08707 0.0 
3.99417 4.00943 0.0 
2.06855 1.99665 0.0 
4.81647 3.78376 0.0 
4.19749 4.08608 0.0 
4.08492 3.93693 0.0 
5.03761 3.99618 0.0 
10.6098 6.02819 0.0 
4.97365 4.02617 0.0 
1.68101 6.42455 0.0 
4.96485 3.99674 0.0 
4.98656 3.99737 0.0 
4.07791 3.9709 0.0 
4.36723 4.05555 0.0 
10.0524 4.76664 0.0 
6.68639 3.59294 0.0 
3.99487 4.0255 0.0 
2.0182 6.32568 0.0 
4.09533 4.03459 0.0 
4.00922 3.99881 0.0 
4.06991 3.94492 0.0 
4.19039 6.90195 0.0 
4.01927 3.99345 0.0 
4.02807 4.0484 0.0 
4.11094 4.03801 0.0 
4.00503 3.98619 0.0 
4.17428 3.96113 0.0 
7.87665 6.3337 0.0 
3.98196 3.98783 0.0 
3.95799 3.98472 0.0 
4.36023 4.05917 0.0 
4.01706 3.99618 0.0 
4.06705 4.18276 0.0 
11.594 4.9373 0.0 
4.28521 4.06811 0.0 
12.1708 3.58185 0.0 
6.21081 4.12765 0.0 
0.702223 3.07033 0.0 
0.250909 5.38994 0.0 
4.03431 4.02945 0.0 
4.05669 3.93986 0.0 
4.03572 3.90755 0.0 
4.8835 3.99346 0.0 
4.01647 3.99236 0.0 
4.00942 4.01407 0.0 
4.03396 4.05254 0.0 
4.30771 4.06929 0.0 
4.01226 4.0186 0.0 
4.05756 3.9507 0.0 
6.65694 6.21936 0.0 
4.43298 3.97209 0.0 
4.74772 4.03975 0.0 
4.08196 4.04273 0.0 
11.359 3.10195 0.0 
5.00785 4.00312 0.0 
10.8833 7.73481 0.0 
14 6.11123 0.0 
4.04075 4.01398 0.0 
4.36996 3.83504 0.0 
3.96293 3.99513 0.0 
4.04956 3.95606 0.0 
4.05472 4.02616 0.0 
9.79734 4.60051 0.0 
4.54825 4.06026 0.0 
3.99922 3.99464 0.0 
5.03684 4.01469 0.0 
7.83095 0.988247 0.0 
4.19254 4.06344 0.0 
4.28392 3.87653 0.0 
4.82772 3.99029 0.0 
14 5.21618 0.0 
4.01284 4.02548 0.0 
4.67547 4.07538 0.0 
4.80013 4.01216 0.0 
5.57925 3.91085 0.0 
1.37979 3.39742 0.0 
4.10275 3.96977 0.0 
5.00991 4.10716 0.0 
4.14081 4.17265 0.0 
4.22917 3.98359 0.0 
4.24422 7.49665 0.0 
4.24934 4.09579 0.0 
4.35343 3.94951 0.0 
5.91253 5.93852 0.0 
3.05349 4.57182 0.0 
3.99988 3.99652 0.0 
11.624 6.91062 0.0 
4.04634 3.9688 0.0 
4.01503 4.07551 0.0 
4.08373 4.05666 0.0 
5.00129 3.99352 0.0 
4.09917 3.9306 0.0 
4.27852 0 0.0 
5.04845 4.04311 0.0 
4.08376 4.04219 0.0 
4.14412 4.06545 0.0 
4.37566 3.94432 0.0 
4.13434 4.07811 0.0 
2.82936 5.83048 0.0 
4.03921 4.05963 0.0 
4.02883 4.00252 0.0 
4.83902 4.04717 0.0 
4.35017 3.94589 0.0 
5.51345 3.96996 0.0 
4.69339 4.0593 0.0 
4.32789 4.03911 0.0 
4.3554 3.97014 0.0 
4.1741 4.07586 0.0 
4.00337 3.991 0.0 
4.67169 4.04973 0.0 
3.75062 1.29589 0.0 
11.6166 3.03607 0.0 
4.76398 4.04148 0.0 
4.04416 3.97874 0.0 
3.91267 2.38613 0.0 
4.02873 4.0411 0.0 
4.88146 4.04087 0.0 
4.99856 7.04864 0.0 
4.49136 4.08498 0.0 
5.01924 4.12854 0.0 
4.12124 3.98374 0.0 
0.826483 0.532433 0.0 
5.13784 4.02471 0.0 
4.94823 3.99585 0.0 
4.89607 4.01966 0.0 
4.99458 4.03862 0.0 
4.25846 4.07942 0.0 
4.02244 4.02798 0.0 
5.09542 3.97365 0.0 
4.12635 4.07409 0.0 
0 1.4212 0.0 
4.90332 3.99337 0.0 
4.00036 4.02872 0.0 
13.2978 1.9175 0.0 
4.02085 4.01707 0.0 
4.45688 3.9731 0.0 
5.01331 3.98969 0.0 
4.29546 4.07179 0.0 
4.24301 4.07612 0.0 
5.05415 4.0144 0.0 
5.00749 4.02107 0.0 
4.12613 3.92733 0.0 
4.00745 4.01155 0.0 
4.83204 3.98992 0.0 
4.19206 3.91938 0.0 
5.81702 3.84848 0.0 
12.6983 7.1386 0.0 
4.09641 3.95124 0.0 
4.60294 4.05585 0.0 
3.91611 4.02964 0.0 
3.96293 4.03138 0.0 
4.16991 4.04935 0.0 
2.69082 5.20185 0.0 
4.23532 3.95103 0.0 
4.05426 3.97127 0.0 
3.99252 4.00665 0.0 
4.17686 4.06982 0.0 
3.97172 3.99094 0.0 
4.59207 3.97821 0.0 
4.09593 3.96353 0.0 
14 4.59679 0.0 
4.44462 4.06621 0.0 
3.93622 4.34358 0.0 
3.99665 4.0541 0.0 
5.06886 4.12388 0.0 
4.19057 4.05281 0.0 
4.10081 3.94382 0.0 
4.05695 3.98888 0.0 
4.15664 4.11715 0.0 
4.75051 3.98715 0.0 
12.7197 4.12775 0.0 
5.00546 4.00308 0.0 
5.00368 4.02219 0.0 
4.42008 3.97215 0.0 
3.9771 4.03148 0.0 
4.27551 4.03498 0.0 
3.91665 3.89892 0.0 
4.15753 4.10167 0.0 
4.01644 4.04405 0.0 
4.18309 4.12442 0.0 
3.96476 4.03852 0.0 
3.96822 4.02719 0.0 
3.97233 4.04194 0.0 
0.431926 7.09953 0.0 
5.00565 3.99954 0.0 
4.21059 3.92477 0.0 
3.80265 4.16366 0.0 
3.92251 4.00785 0.0 
4.15888 3.90796 0.0 
12.4842 4.22703 0.0 
5.21475 3.97952 0.0 
7.36792 5.61646 0.0 
4.49849 6.93759 0.0 
4.96907 3.98723 0.0 
3.8894 3.91154 0.0 
5.77535 3.92073 0.0 
13.2243 6.58094 0.0 
4.46476 3.97392 0.0 
4.00756 4.02287 0.0 
4.00612 4.04547 0.0 
5.0401 4.02083 0.0 
4.98371 4.01321 0.0 
4.36026 3.96973 0.0 
11.8191 3.39498 0.0 
4.11227 4.05169 0.0 
4.47912 3.97472 0.0 
7.77754 5.82697 0.0 
3.99833 4.00152 0.0 
6.49943 1.9325 0.0 
11.1687 2.59466 0.0 
6.25214 4.08628 0.0 
9.70989 7.75915 0.0 
4.338 4.0632 0.0 
4.02341 4.03456 0.0 
4.30552 4.0744 0.0 
4.52724 7.41561 0.0 
5.05919 4.01855 0.0 
2.15923 7.15628 0.0 
4.22906 3.92121 0.0 
4.40668 4.068 0.0 
4.60701 3.95862 0.0 
4.27489 4.14448 0.0 
4.19888 4.06397 0.0 
4.12176 3.9459 0.0 
4.13732 3.96487 0.0 
12.0472 6.07402 0.0 
1.24078 0.550265 0.0 
9.10545 7.45594 0.0 
2.38032 0.204862 0.0 
4.27279 4.02121 0.0 
4.11851 4.05833 0.0 
4.25854 3.983 0.0 
4.01517 4.03055 0.0 
3.41272 0.490598 0.0 
3.99882 3.99972 0.0 
7.15285 6.80318 0.0 
4.14337 4.03383 0.0 
4.65423 4.05055 0.0 
4.03203 3.93215 0.0 
3.99908 3.98836 0.0 
8.76112 4.31939 0.0 
12.4261 6.96803 0.0 
4.8348 4.02808 0.0 
5.82879 4.74509 0.0 
4.00243 3.99333 0.0 
4.21507 3.9482 0.0 
0.559103 6.5697 0.0 
4.97222 4.02124 0.0 
4.10349 3.92287 0.0 
4.19735 4.0441 0.0 
4.63319 3.97128 0.0 
4.34186 4.12909 0.0 
4.03424 3.97529 0.0 
4.08678 3.96894 0.0 
11.9473 3.59927 0.0 
5.1327 4.04445 0.0 
4.74441 4.01731 0.0 
4.08293 3.9416 0.0 
4.58516 4.03783 0.0 
3.99469 4.00752 0.0 
4.01127 4.04737 0.0 
5.09271 4.07101 0.0 
3.75785 4.2248 0.0 
3.9901 3.98452 0.0 
12.435 2.56843 0.0 
4.19854 4.04961 0.0 
4.15141 3.97478 0.0 
4.08268 3.97175 0.0 
4.58712 3.97823 0.0 
4.0576 3.97622 0.0 
4.51764 4.06355 0.0 
4.1797 4.07872 0.0 
4.00791 3.98738 0.0 
4.90934 3.98216 0.0 
3.99834 4.00086 0.0 
10.0708 7.04667 0.0 
4.2367 3.96696 0.0 
3.59386 3.60045 0.0 
13.2253 0 0.0 
10.1351 3.82958 0.0 
13.3691 5.15635 0.0 
8.87151 3.94963 0.0 
5.06347 3.99507 0.0 
4.0175 4.04099 0.0 
4.7771 3.98803 0.0 
4.24898 3.96859 0.0 
5.08198 4.04957 0.0 
5.02947 4.00625 0.0 
4.74746 4.05859 0.0 
5.02122 3.98128 0.0 
4.87099 3.88909 0.0 
4.62504 3.9799 0.0 
5.61494 8 0.0 
4.11862 4.07497 0.0 
13.4125 7.46568 0.0 
4.08711 3.98632 0.0 
3.99883 4.01382 0.0 
4.45902 4.06556 0.0 
4.15574 3.96573 0.0 
4.48875 3.97575 0.0 
4.15917 4.06546 0.0 
0.707621 6.30756 0.0 
7.04928 5.63666 0.0 
4.4952 4.06314 0.0 
4.13386 4.04638 0.0 
4.84142 3.97764 0.0 
4.00243 4.01052 0.0 
4.54279 4.06157 0.0 
5.01138 4.01337 0.0 
3.99752 4.02893 0.0 
4.01884 3.99521 0.0 
4.73288 4.02428 0.0 
3.98628 3.99582 0.0 
4.06911 3.9687 0.0 
4.98756 3.96669 0.0 
4.01204 4.00974 0.0 
4.72974 3.98531 0.0 
5.63097 4.57929 0.0 
5.43934 3.81113 0.0 
4.08146 4.03692 0.0 
8.1554 7.24604 0.0 
4.09399 3.96959 0.0 
4.00774 3.99043 0.0 
3.98163 4.03116 0.0 
1.58634 4.11387 0.0 
5.01128 7.64328 0.0 
4.08725 4.12726 0.0 
4.07644 3.95366 0.0 
4.17688 3.91279 0.0 
4.43217 4.07121 0.0 
5.10311 4.0306 0.0 
4.08875 3.9074 0.0 
5.07095 2.11145 0.0 
3.93422 3.94134 0.0 
4.20635 4.25475 0.0 
0 7.54144 0.0 
3.98027 4.05285 0.0 
4.04521 3.97645 0.0 
4.07513 3.96893 0.0 
4.46857 3.97337 0.0 
3.98817 4.01223 0.0 
4.23509 3.97317 0.0 
4.04077 3.99338 0.0 
8.74191 0.517135 0.0 
4.73099 4.053 0.0 
4.0225 4.01996 0.0 
4.86801 3.99183 0.0 
4.70379 8 0.0 
3.00254 3.79012 0.0 
4.90608 3.99416 0.0 
12.1985 2.08022 0.0 
6.34031 3.82252 0.0 
4.56397 4.0597 0.0 
9.69603 1.17993 0.0 
5.18793 4.05304 0.0 
4.97564 3.98442 0.0 
4.03436 3.97963 0.0 
10.8425 1.88488 0.0 
3.98111 4.00805 0.0 
4.12325 4.03585 0.0 
3.99352 3.97666 0.0 
9.52987 5.94501 0.0 
5.02315 4.00602 0.0 
4.67002 3.84867 0.0 
4.10761 4.0532 0.0 
3.98468 3.9804 0.0 
4.27492 4.05293 0.0 
4.10308 3.95678 0.0 
4.30199 3.92175 0.0 
4.70867 4.19468 0.0 
12.3248 4.10516 0.0 
4.08433 4.05007 0.0 
11.3207 6.86561 0.0 
4.2271 4.06544 0.0 
3.98206 3.97395 0.0 
12.9901 3.16776 0.0 
12.502 4.59678 0.0 
4.08205 4.06709 0.0 
3.96213 4.1718 0.0 
4.03707 3.96557 0.0 
4.0274 4.0269 0.0 
4.00375 4.03912 0.0 
4.36805 4.07661 0.0 
3.99121 4.03339 0.0 
3.99417 4.04189 0.0 
4.09167 3.85234 0.0 
3.99526 4.00176 0.0 
4.22155 4.07721 0.0 
1.05847 0.743665 0.0 
3.99997 3.99241 0.0 
6.53512 3.85508 0.0 
4.27738 4.06074 0.0 
8.50597 6.62735 0.0 
4.33847 4.07438 0.0 
3.98918 4.03714 0.0 
3.98648 4.05975 0.0 
4.01059 4.0357 0.0 
5.00317 4.00255 0.0 
3.79926 4.03691 0.0 
4.09975 3.95651 0.0 
4.13306 4.06692 0.0 
4.00056 4.04248 0.0 
1.05155 0.371395 0.0 
5.35539 3.88763 0.0 
3.9896 4.00463 0.0 
4.18745 3.99628 0.0 
3.98613 3.98439 0.0 
4.31911 4.076 0.0 
5.00875 4.00222 0.0 
4.00273 4.04763 0.0 
4.02428 4.00868 0.0 
4.26517 3.96741 0.0 
2.46283 1.41429 0.0 
4.00875 3.98146 0.0 
4.07284 3.99811 0.0 
6.47839 4.29019 0.0 
4.94847 4.01078 0.0 
4.12438 3.96136 0.0 
4.13093 4.09563 0.0 
3.98643 3.99986 0.0 
4.4209 3.97177 0.0 
4.06912 3.97273 0.0 
3.99581 3.98523 0.0 
4.17314 4.0612 0.0 
0.970073 0 0.0 
3.98481 4.00073 0.0 
3.97761 4.0047 0.0 
4.04586 4.1964 0.0 
4.07424 3.49337 0.0 
5.02505 4.01161 0.0 
4.71862 4.1124 0.0 
4.11077 4.06077 0.0 
3.73944 7.44888 0.0 
5.04298 4.00764 0.0 
4.14693 4.07034 0.0 
3.83066 4.22946 0.0 
3.30336 6.27526 0.0 
2.17057 3.46886 0.0 
4.27982 4.05867 0.0 
14 6.70716 0.0 
4.06498 3.96487 0.0 
4.59308 3.93216 0.0 
4.01621 3.9848 0.0 
4.11333 3.95725 0.0 
4.02269 3.99899 0.0 
4.0888 3.96815 0.0 
4.97519 3.98894 0.0 
4.07076 4.03121 0.0 
4.66024 3.98295 0.0 
3.98558 4.00796 0.0 
4.42533 3.97096 0.0 
3.99705 4.04765 0.0 
4.96232 3.98271 0.0 
4.96842 3.9332 0.0 
11.2037 6.16116 0.0 
5.0004 3.98388 0.0 
9.05545 0 0.0 
5.05268 4.00394 0.0 
[...]
<PointData>
  <DataArray type = "Float64" Name="Vitesse" NumberOfComponents="3" format="ascii">
1 0 0.0 
1.00599 0 0.0 
1.00418 0 0.0 
1 0 0.0 
1.02953 0.172805 0.0 
0.843722 -0.26102 0.0 
0.940138 -0.119818 0.0 
0.794038 0.0126258 0.0 
0.623173 -0.0822746 0.0 
0 0 0.0 
0 0 0.0 
0.00438612 -0.000413617 0.0 
0.183937 0.126278 0.0 
1.12156 0.117415 0.0 
1.00728 0.000591111 0.0 
0.894853 0.245331 0.0 
0.285277 0.135324 0.0 
1.00059 -0.00295507 0.0 
1.05484 0.0101197 0.0 
0.751999 0.0994178 0.0 
1.05175 -0.186187 0.0 
0.092227 0.01032 0.0 
1.00785 -0.00117203 0.0 
0.0661423 -0.00995677 0.0 
1.00087 0.00232781 0.0 
0.00598485 0.000878982 0.0 
0.0111415 0.000197063 0.0 
0.0710661 -0.00500877 0.0 
0 0 0.0 
1.00817 -0.00225084 0.0 
1.01003 0.00344531 0.0 
0.565417 0.287773 0.0 
1.0013 0.00311915 0.0 
0 0 0.0 
0 0 0.0 
1.01528 -0.205651 0.0 
1.0085 0.00297959 0.0 
0 0 0.0 
0.835788 0.359012 0.0 
0 0 0.0 
0.45421 -0.344193 0.0 
0.180495 -0.00440087 0.0 
1.00932 -0.001505 0.0 
0.590237 -0.22879 0.0 
0.719702 -0.113213 0.0 
0 0 0.0 
0 0 0.0 
1.01041 0.162008 0.0 
1.00803 -0.00197499 0.0 
1.85281e-06 1.57838e-07 0.0 
1.01154 0.00302114 0.0 
0.88379 -0.0124451 0.0 
0.999823 -0.000466451 0.0 
0.999992 0.00034296 0.0 
0.063723 0.0236924 0.0 
1.05695 -0.243665 0.0 
1.01078 -0.20791 0.0 
0.00133965 5.39153e-05 0.0 
0 0 0.0 
0 0 0.0 
0.867786 0.34908 0.0 
0.0193007 -1.30119e-05 0.0 
0.0891755 0.0611958 0.0 
0.984407 -0.226931 0.0 
1.01116 -0.00176904 0.0 
0.0118286 0.000612448 0.0 
-2.96228e-12 2.72199e-13 0.0 
4.29284e-14 1.23539e-14 0.0 
1.00878 0.00168198 0.0 
0.0248428 -0.00484412 0.0 
1.00632 -0.000160321 0.0 
1.00517 -0.00224707 0.0 
-1.11547e-301 -9.26769e-303 0.0 
1.08433 -0.0355712 0.0 
0.670731 -0.0828103 0.0 
0.933947 -0.234305 0.0 
0 0 0.0 
1.00906 -0.00153921 0.0 
0.00491697 -0.000412079 0.0 
0.191893 -0.293996 0.0 
0.061713 -0.00935803 0.0 
1.00875 0.000377552 0.0 
0.0700141 0.00649867 0.0 
1.09057 -0.0554542 0.0 
0.00530621 0.000550072 0.0 
1.00549 -0.0041188 0.0 
0.47563 0.290769 0.0 
0.271644 -0.0193706 0.0 
0 0 0.0 
0.806649 0.0185778 0.0 
0.998951 -0.0007222 0.0 
0.0298884 -0.00282509 0.0 
0.737005 -0.0497997 0.0 
1.06295 0.160615 0.0 
0 0 0.0 
1.00774 0.00123441 0.0 
0.798668 0.0774395 0.0 
0.347789 0.00397332 0.0 
1.01369 -0.00162572 0.0 
0.991218 0.0110814 0.0 
0.0810673 -0.177217 0.0 
1.00633 -0.000616259 0.0 
0.500977 -0.113234 0.0 
0.879281 0.271117 0.0 
0.609759 0.162001 0.0 
0.0642498 0.0140251 0.0 
1.06826 -0.167447 0.0 
1.0063 0 0.0 
0.196919 -0.0262668 0.0 
-3.26851e-28 -9.26352e-29 0.0 
0.407042 0.0704492 0.0 
0.434237 0.00419957 0.0 
0.851133 0.168228 0.0 
1.00249 0.00691175 0.0 
0.911058 0.33756 0.0 
0 0 0.0 
0.110117 -0.0120428 0.0 
0.413028 0.00299436 0.0 
0.462369 0.0128405 0.0 
0.108931 -0.00989505 0.0 
0 0 0.0 
0.00622192 0.000316837 0.0 
0.581413 0.0831399 0.0 
0.209262 -0.189325 0.0 
0.00948947 -0.00102493 0.0 
1.00576 -0.00358983 0.0 
1.00868 0.00144747 0.0 
0.0220736 -0.00279159 0.0 
9.14191e-81 -2.38243e-81 0.0 
1.00797 -0.00983926 0.0 
0.731503 0.331732 0.0 
0.0939224 -0.0107401 0.0 
1.01007 0.00130416 0.0 
0.327226 -0.00989693 0.0 
0.884608 -0.0501662 0.0 
0 0 0.0 
1.0002 -0.000286318 0.0 
0.161499 -0.00999917 0.0 
0.00758716 0.000630872 0.0 
0.00308293 -0.000399756 0.0 
0.145192 -0.0208605 0.0 
0.371931 0.0273091 0.0 
0.334124 0.174757 0.0 
0.28224 0.0239939 0.0 
0.801768 0.16451 0.0 
1 0 0.0 
0.0100224 0.000687547 0.0 
0.608804 0.341081 0.0 
1.00716 0.000663622 0.0 
-1.7208e-224 -7.28772e-225 0.0 
0.00964391 0.0006082 0.0 
0.105538 0.0187852 0.0 
0.0946045 0.00552422 0.0 
0.316054 0.0265471 0.0 
0.0770244 -0.00648572 0.0 
0.0596208 -0.0182064 0.0 
1.05258 -0.132256 0.0 
4.34938e-98 1.70148e-98 0.0 
0.0110111 0.000352037 0.0 
1.01879 -0.0781364 0.0 
0.973899 0.0122128 0.0 
1.00554 -0.000507256 0.0 
0.753988 -0.102222 0.0 
0.00524601 -0.0006074 0.0 
0.812213 0.0277417 0.0 
0.706824 0.0960299 0.0 
0 0 0.0 
0.999079 0.00774035 0.0 
0.372193 -0.00623585 0.0 
0.259553 -0.0478268 0.0 
0.283038 0.045851 0.0 
0.368854 0.0477012 0.0 
0.634713 -0.136619 0.0 
0.0158352 0.000622045 0.0 
0.303689 -0.0289665 0.0 
1.01404 -0.00162326 0.0 
2.49075e-13 5.41765e-16 0.0 
0.988399 0.0756485 0.0 
0.777609 0.263675 0.0 
0.857799 -0.0506959 0.0 
0 0 0.0 
0.915646 -0.13114 0.0 
0 0 0.0 
1.09446 0.190152 0.0 
-6.77057e-18 -5.94727e-19 0.0 
0.907133 -0.00292506 0.0 
0.0198851 -0.00646506 0.0 
0.0629495 -0.0176208 0.0 
0.00662435 0.000220879 0.0 
0.661547 0.155107 0.0 
0 0 0.0 
0.907363 -0.102608 0.0 
1.06546 0.189452 0.0 
0.788933 0.366032 0.0 
1.10689 0.168725 0.0 
0.724334 0.121441 0.0 
0.673466 0.0993917 0.0 
0.721812 0.156138 0.0 
1.00007 0.00031964 0.0 
0.0270346 0.00337209 0.0 
0.93318 -0.0569688 0.0 
0.934607 0.0485312 0.0 
0.792607 -0.0105309 0.0 
1.09471 -0.113116 0.0 
0.954086 -0.00454362 0.0 
0.300399 0.0169614 0.0 
1.01053 -0.00269935 0.0 
1.00933 0.00241317 0.0 
0.098628 0.00554775 0.0 
0.899739 -0.0786968 0.0 
0.765077 0.0135938 0.0 
1.00562 -0.00105037 0.0 
0.00425546 0.00073665 0.0 
0.473746 0.331477 0.0 
0.761479 0.327742 0.0 
0.0774678 -0.0140339 0.0 
0.0230631 -0.00474989 0.0 
0.0131472 0.000233381 0.0 
1.00942 0.00196027 0.0 
0.0644108 0.0112975 0.0 
0.000205609 3.21691e-05 0.0 
1.0099 -0.00209392 0.0 
0.0447852 -0.0690224 0.0 
1.01071 0.000686789 0.0 
1.00867 0.00117452 0.0 
0.73887 -0.0108525 0.0 
1.00707 -0.000159738 0.0 
2.89326e-49 1.10173e-50 0.0 
0.610491 0.305497 0.0 
0.151437 0.00356901 0.0 
1.00851 0.00122326 0.0 
0.0871162 -0.00945011 0.0 
1.00202 0.0017214 0.0 
0.946691 -0.0529621 0.0 
2.1382e-05 -6.61169e-07 0.0 
0.253345 0.00908322 0.0 
1.12604 0.10721 0.0 
0.0584635 0.0106754 0.0 
0.775339 -0.0842265 0.0 
0.120648 -0.00327596 0.0 
1.00696 -0.00110642 0.0 
1.00049 -0.000467011 0.0 
1.00756 -0.000389984 0.0 
1.00202 -0.000377157 0.0 
0 0 0.0 
0.320059 0.06038 0.0 
1.93949e-131 1.89226e-132 0.0 
0.603444 0.336641 0.0 
1.00431 -0.00121755 0.0 
0.0487117 -0.117025 0.0 
1.00974 -0.00106319 0.0 
0 0 0.0 
0.000116889 -5.38232e-06 0.0 
1.0099 -0.259417 0.0 
0.479626 -0.446463 0.0 
1.0094 -0.00282651 0.0 
1.00582 -0.00057244 0.0 
2.905e-06 -1.8776e-07 0.0 
1.01627 -0.010205 0.0 
0.0848419 -0.10891 0.0 
0.462776 -0.0137572 0.0 
1.00009 0.000618406 0.0 
0.0442773 -0.00694588 0.0 
1.08656 -0.165116 0.0 
0 0 0.0 
0.112404 0.005 0.0 
1.06202 0.0635681 0.0 
0.313174 -0.0859356 0.0 
0.116265 -0.0142946 0.0 
1.01138 0.00058587 0.0 
0.255469 -0.0228168 0.0 
-1.37622e-83 8.10553e-85 0.0 
1.01576 -0.18097 0.0 
9.99795e-235 8.6604e-236 0.0 
0.235995 0.0942488 0.0 
0.78864 0.341546 0.0 
0.445233 -0.0381499 0.0 
0.953642 0.044524 0.0 
0.594925 -0.347406 0.0 
1.00802 0.00113103 0.0 
1.64326e-150 4.78688e-152 0.0 
-6.66242e-179 5.6157e-180 0.0 
6.90987e-10 -6.81334e-11 0.0 
0.0134993 0.000517966 0.0 
7.97216e-18 -9.18325e-19 0.0 
0.0173846 -0.00146078 0.0 
0.63759 0.0896379 0.0 
0.227682 -0.141103 0.0 
0.118287 0.00569416 0.0 
0.0487616 -0.0930055 0.0 
1.00714 -0.000609076 0.0 
0.0167864 0.00019188 0.0 
0.981328 -0.0254648 0.0 
1.00634 0 0.0 
0.937309 0.000735505 0.0 
1.00739 -0.00190808 0.0 
0.768894 0.00486931 0.0 
0.121216 0.0110877 0.0 
0.767311 0.372213 0.0 
0.00485564 0.000264784 0.0 
-1.5198e-40 -8.93751e-42 0.0 
0.260067 -0.0288198 0.0 
0.0531368 -0.00207291 0.0 
0.140337 -0.0132335 0.0 
0.18043 0.0236633 0.0 
0.933326 0.021568 0.0 
0.0140658 0.000811715 0.0 
1.00947 0 0.0 
0.865828 0.188099 0.0 
1.00489 -0.000433299 0.0 
0 0 0.0 
0.311165 0.264992 0.0 
2.37111e-08 -1.09685e-09 0.0 
0.0685497 -0.00123323 0.0 
-1.81815e-13 -2.34271e-14 0.0 
0.306076 0.0421579 0.0 
1.00011 0.00089145 0.0 
1.01111 -0.00289607 0.0 
2.40465e-25 3.11842e-27 0.0 
0 0 0.0 
0.133368 0.00604873 0.0 
0.0987056 0.126869 0.0 
0.0142727 -0.00124012 0.0 
0.0378249 -0.0149553 0.0 
0.607101 0.315346 0.0 
0 0 0.0 
4.13516e-69 -2.15981e-70 0.0 
0.460346 -0.192814 0.0 
0.249074 -0.0386066 0.0 
0.30541 0.0204783 0.0 
0 0 0.0 
0.00810781 0.000725286 0.0 
1.01744 -0.0142453 0.0 
1.01004 0.0199123 0.0 
-5.77057e-93 -1.65668e-93 0.0 
1.00837 -0.000618704 0.0 
0.0578907 -0.00159784 0.0 
0 0 0.0 
0.646499 0.180757 0.0 
0.998266 0.0008189 0.0 
1.00912 0.000485826 0.0 
1.02901 0.214489 0.0 
0.808441 -0.14187 0.0 
1.07386 -0.0966189 0.0 
0.0731384 -0.00232662 0.0 
0.156647 -0.0162149 0.0 
1.07733 -0.174407 0.0 
1.01267 -0.00284729 0.0 
0.853198 -0.117778 0.0 
1.0728 0.104588 0.0 
1 0 0.0 
0.759721 0.197837 0.0 
0.0454598 -0.00811361 0.0 
0.188012 -0.0275572 0.0 
0.0118735 0.00016307 0.0 
0.433285 0.110586 0.0 
2.65869e-35 -6.40949e-38 0.0 
0 0 0.0 
1.00819 0.000207842 0.0 
0.0804002 -0.00813577 0.0 
-1.04675e-221 -4.43307e-222 0.0 
0.00876562 0.000495684 0.0 
1.00843 0 0.0 
0.987459 -0.00374907 0.0 
0.00463025 0.000407942 0.0 
1.00766 0.000833131 0.0 
0.987486 0.00509298 0.0 
0.0117973 -0.000808729 0.0 
1.00811 0.00048687 0.0 
0.343839 -0.0257504 0.0 
0.129399 0.00801667 0.0 
-1.63386e-83 3.49474e-84 0.0 
1.00825 0.000842979 0.0 
0.503797 0.00923892 0.0 
0 0 0.0 
0.709246 -0.378547 0.0 
1.00857 -0.00132469 0.0 
0.0456401 -0.00318284 0.0 
1.05648 0.00324382 0.0 
0.189502 0.040208 0.0 
0.657173 -0.286611 0.0 
0 0 0.0 
0.529058 -0.0576186 0.0 
0.851203 -0.0229095 0.0 
1.08962 -0.0207374 0.0 
0.882576 -0.00601363 0.0 
0.315844 0.0747989 0.0 
1.00655 -0.000661463 0.0 
0.0327704 0.00194015 0.0 
0.716058 -0.267797 0.0 
1.00669 0.00118911 0.0 
1.01165 -0.00167595 0.0 
0.900901 0.251976 0.0 
0.941253 0.125163 0.0 
0.784387 -0.230267 0.0 
0.0896144 0.0559171 0.0 
0.715977 0.336996 0.0 
0.167848 -0.000801185 0.0 
0.647506 0.256192 0.0 
0.711663 0.270942 0.0 
1.0503 -0.132419 0.0 
0.164282 -0.0985037 0.0 
0.417098 0.0402109 0.0 
1.00034 -0.000525613 0.0 
0.275549 -0.347441 0.0 
0.950291 0.00468777 0.0 
1.70335e-121 1.50765e-122 0.0 
1.00855 -0.00107645 0.0 
0.129392 0.00301943 0.0 
0.676618 0.241447 0.0 
0.788046 0.21834 0.0 
0.708764 0.37541 0.0 
0.0148697 -0.00720108 0.0 
0.908855 0.0105406 0.0 
0.55765 -0.0641278 0.0 
0.539669 0.100287 0.0 
0.727809 0.308152 0.0 
1.00035 -0.000265741 0.0 
0.904173 0.0257449 0.0 
0.344793 -0.0249676 0.0 
-5.53912e-194 -7.50034e-195 0.0 
0.608192 -0.292737 0.0 
0.180284 0.0035497 0.0 
0.027961 -0.00240595 0.0 
0.762176 0.305111 0.0 
0 0 0.0 
0.0168084 9.94484e-05 0.0 
1.00188 -0.00275955 0.0 
0.600618 -0.359178 0.0 
-5.63695e-245 -4.68336e-246 0.0 
1.0096 -0.00763117 0.0 
0.00155725 -0.000210476 0.0 
0.271039 -0.0199581 0.0 
1.05726 0.217282 0.0 
0.423949 -0.124346 0.0 
0.011757 0.000762366 0.0 
0.0336251 -0.00353661 0.0 
0.579688 -0.43453 0.0 
0.0656864 0.01105 0.0 
1.00031 0 0.0 
0.448265 -0.101052 0.0 
0.540659 -0.0345491 0.0 
0.996817 0.148863 0.0 
1.01744 -0.0439155 0.0 
0.047204 -0.00901901 0.0 
0.736925 -0.034716 0.0 
0.496102 0.106325 0.0 
1.00634 0.00158211 0.0 
0.0663221 -0.00140856 0.0 
0.562923 0.0965047 0.0 
0.951837 0.0617415 0.0 
1.00544 0.00606414 0.0 
0.996764 -0.00189145 0.0 
0 0 0.0 
1.00473 -0.00146884 0.0 
0.473502 -0.0838491 0.0 
0.588173 0.0126489 0.0 
1e-307 1e-307 0.0 
0.460967 -0.0420848 0.0 
0 0 0.0 
0.142668 -0.014989 0.0 
0.0858876 0.00518461 0.0 
0 0 0.0 
2.7681e-05 6.28947e-07 0.0 
0.439252 0.0245186 0.0 
0.0244161 0.000534122 0.0 
0.748786 0.277323 0.0 
0.137911 0.00736984 0.0 
0.618388 0.0274958 0.0 
1.0074 -0.00107865 0.0 
0.150359 0.0177667 0.0 
1.00793 0 0.0 
0.0816664 0.00302766 0.0 
0.935976 -0.0989212 0.0 
0.033049 -0.0117865 0.0 
0.491645 -0.0487112 0.0 
0.769042 0.364504 0.0 
0.747204 0.063311 0.0 
0.579318 -0.0613916 0.0 
1.00753 -0.00142909 0.0 
0.863542 0.35412 0.0 
0.493075 -0.172146 0.0 
0.814564 0.356042 0.0 
0.00120646 -7.26447e-05 0.0 
0.00392305 -0.000415117 0.0 
0.943275 -0.334594 0.0 
0.00371532 -0.000683851 0.0 
0.746346 -0.090162 0.0 
0.94337 0.155374 0.0 
0.00547492 0.000465774 0.0 
0.443048 0.064126 0.0 
1.04977 0.102681 0.0 
0 0 0.0 
0.222674 -0.0210395 0.0 
0.00939813 0.000330196 0.0 
0.415604 -0.00491386 0.0 
4.06519e-05 3.95795e-06 0.0 
0.0458405 -0.00979587 0.0 
0.407244 -0.00326233 0.0 
0.810073 0.12714 0.0 
-2.20314e-83 -8.34752e-85 0.0 
0.00884838 0.000998155 0.0 
0.45538 -0.0477139 0.0 
0.782088 0.13518 0.0 
1.00884 -0.0014898 0.0 
0.119742 -0.00701282 0.0 
1.00508 -0.00148357 0.0 
0.998265 -0.00078158 0.0 
1.04471e-60 7.3412e-63 0.0 
0.960855 -0.110986 0.0 
0.800073 0.0731565 0.0 
0.01424 -0.000737602 0.0 
0 0 0.0 
0.697642 -0.449045 0.0 
0.767868 0.0874522 0.0 
0.914562 0.0039265 0.0 
0.00873727 0.000316165 0.0 
1.00938 -0.00178627 0.0 
1.0422 0.0727759 0.0 
0.197616 0.178573 0.0 
0.772147 -0.29026 0.0 
1.00845 -0.00300787 0.0 
1.07928 -0.201562 0.0 
1.00763 -0.000219241 0.0 
0.0257616 -0.00267093 0.0 
0.897077 0.222833 0.0 
0.171473 0.0126603 0.0 
0.0395811 0.00779867 0.0 
0.257768 -0.0463855 0.0 
1.0107 5.69594e-05 0.0 
1.01199 -0.00198266 0.0 
1.01371e-05 -9.04394e-07 0.0 
0.591096 0.0805561 0.0 
0.0429318 -0.0166623 0.0 
0.985367 -0.0294035 0.0 
0.839962 -0.0168192 0.0 
-8.85063e-92 -5.8141e-93 0.0 
-2.01266e-78 -1.22233e-78 0.0 
1.02402e-06 2.27448e-07 0.0 
0.928421 0.000381834 0.0 
0.478909 -0.159665 0.0 
0 0 0.0 
0.497081 -0.353126 0.0 
0.862144 0.258503 0.0 
1.00011 -0.000157392 0.0 
0.1675 -0.0289232 0.0 
1.0097 0.00161171 0.0 
0.113333 -0.0113259 0.0 
0.892327 -0.301087 0.0 
4.26077e-06 -3.12552e-08 0.0 
0.439322 -0.0102804 0.0 
0.0508409 0.00857859 0.0 
0.966198 0.305176 0.0 
0.213419 0.0012947 0.0 
0.68643 -0.0463879 0.0 
0 0 0.0 
2.66875e-06 6.43119e-08 0.0 
0.451186 -0.0046651 0.0 
0.00187133 -0.00031216 0.0 
0.279743 -0.0323076 0.0 
1.54843e-26 -1.10037e-27 0.0 
-7.84852e-112 8.25419e-113 0.0 
0 0 0.0 
0 0 0.0 
1.00045 0.00516998 0.0 
0.00166597 -0.000395708 0.0 
0 0 0.0 
-2.15254e-13 8.9186e-15 0.0 
1.00746 -0.00116993 0.0 
0 0 0.0 
0.945922 0.181662 0.0 
1.01213 -0.294186 0.0 
0 0 0.0 
0.323414 0.165608 0.0 
0.124607 0.0175832 0.0 
1.01094 0.00098691 0.0 
0.0593083 0.00306048 0.0 
0.999522 -0.000235706 0.0 
7.72399e-123 -9.90567e-123 0.0 
0.0840578 0.0195473 0.0 
0 0 0.0 
1.00341 -0.0036636 0.0 
1.00253 -0.00412643 0.0 
1.00699 0.256741 0.0 
0.817967 0.364115 0.0 
5.40715e-158 6.63191e-158 0.0 
1.01022 -0.00225503 0.0 
1.02431 0.0585353 0.0 
1.01026 -0.00166798 0.0 
0.621166 0.370641 0.0 
1.05056e-180 -1.3473e-180 0.0 
0.609435 -0.464251 0.0 
1.05135 0.00218886 0.0 
0.727385 0.191264 0.0 
1.00623 0 0.0 
0.678277 0.199151 0.0 
0.170627 0.00112688 0.0 
0.500893 0.151977 0.0 
0.0967523 -0.089718 0.0 
0 0 0.0 
1.00868 -6.35965e-05 0.0 
1.0089 -0.000778192 0.0 
1.03631 -0.272846 0.0 
0.0146063 -0.00848257 0.0 
1.57475e-196 1.05865e-197 0.0 
1.00565 -0.00149215 0.0 
0.0674599 -0.00194627 0.0 
0.991889 0.00062219 0.0 
-1.08913e-227 1.71263e-227 0.0 
0.0104381 -0.000788666 0.0 
0.0268104 0.00149533 0.0 
0.175734 -0.0171651 0.0 
0.0143741 0.000863306 0.0 
0.591367 -0.0729614 0.0 
0.11191 0.0361286 0.0 
1.09297 -0.0961382 0.0 
1.00808 -0.0448941 0.0 
0.0126001 0.000399381 0.0 
1.00953 -0.00180252 0.0 
2.47083e-157 3.03049e-157 0.0 
0.16577 0.0225552 0.0 
0.337481 0.116636 0.0 
0.149399 -0.038162 0.0 
0.00666183 0.000774074 0.0 
0.0735205 0.00984291 0.0 
0.918259 0.283 0.0 
0 0 0.0 
-1.31436e-13 -1.61105e-14 0.0 
0.291019 0.012808 0.0 
0.943605 -0.359613 0.0 
0.0132234 -0.000695853 0.0 
0.692871 -0.289497 0.0 
0 0 0.0 
1.01051 -0.00195743 0.0 
0.0484805 -0.00344149 0.0 
0 0 0.0 
1.16602e-73 -6.09018e-75 0.0 
0.239174 0.00963475 0.0 
1.00977 -0.00201767 0.0 
0.57452 0.222796 0.0 
0.650271 0.276726 0.0 
0.983969 0.278524 0.0 
5.30956e-143 8.85276e-143 0.0 
0.920768 -0.30478 0.0 
1.00003 0.000515749 0.0 
0.745553 -0.428411 0.0 
0.951526 0.283721 0.0 
1.00107 -0.00319604 0.0 
3.36044e-26 -2.95146e-27 0.0 
0.00268105 0.000437912 0.0 
0.117614 -0.0214691 0.0 
0.819346 -0.244824 0.0 
0.905404 0.331998 0.0 
0.161107 0.167823 0.0 
0 0 0.0 
0.343095 0.0194566 0.0 
0.185885 0.107819 0.0 
0.0330952 -0.0150248 0.0 
1.01733 -0.111247 0.0 
0.410898 -0.0271364 0.0 
0.80222 -0.35223 0.0 
2.05336e-06 8.72303e-08 0.0 
0.0407064 -0.01621 0.0 
0 0 0.0 
1.00867 -0.00134278 0.0 
-6.36524e-101 -1.41774e-101 0.0 
0.454585 0.160255 0.0 
1.00902 0.00896392 0.0 
0.645366 -0.00939766 0.0 
2.24906e-05 1.5438e-06 0.0 
1.00699 0.000168019 0.0 
1.00761 -0.00204515 0.0 
1.00602 0.153199 0.0 
1.00898 -0.00149289 0.0 
0 0 0.0 
1.00829 0.00101652 0.0 
0.0493543 -0.00528786 0.0 
0 0 0.0 
0.0120348 -0.00096939 0.0 
1.00839 0.000242735 0.0 
1.00051 0.000589011 0.0 
5.50169e-07 7.43757e-08 0.0 
0.682511 -0.107252 0.0 
1.01031 0.00150905 0.0 
6.22101e-12 1.03315e-12 0.0 
1.00441 -0.00208995 0.0 
0.549487 -0.015314 0.0 
0 0 0.0 
1.01224 -0.00146561 0.0 
0.879669 -0.0733429 0.0 
1.00024 0.00139721 0.0 
0.968724 -0.341659 0.0 
0.00494887 0.000747157 0.0 
0.0493412 0.00220864 0.0 
0.872015 -0.0450784 0.0 
0.918104 0.0330909 0.0 
5.24507e-08 -1.82891e-08 0.0 
0.849057 0.331742 0.0 
-7.75584e-41 -8.77306e-42 0.0 
-2.73835e-19 -3.17322e-20 0.0 
1.00852 0.00107487 0.0 
0.68482 0.0602746 0.0 
0.00583946 1.26905e-05 0.0 
1.01063 0.270842 0.0 
0.398334 -0.148073 0.0 
0.561182 -0.208268 0.0 
0.999492 0.00263407 0.0 
-6.74521e-33 -3.06941e-34 0.0 
0.806053 0.165318 0.0 
1.01154 -0.0021326 0.0 
0.84291 0.345739 0.0 
0.140048 0.00530787 0.0 
0.841037 0.322605 0.0 
0.846486 0.29698 0.0 
0.555424 -0.134744 0.0 
0.370863 -0.256167 0.0 
1.00001 -0.000533089 0.0 
2.11924e-23 1.98845e-24 0.0 
0.881363 -0.0714368 0.0 
0.219736 -0.0419064 0.0 
0.892083 -0.0282851 0.0 
0.616067 -0.116933 0.0 
1.0046 0 0.0 
0.0001121 -1.51912e-05 0.0 
0.564068 0.0550018 0.0 
1.05234 0.00111377 0.0 
-1.85078e-104 -9.66511e-106 0.0 
0.133448 -0.0766231 0.0 
0.157518 -0.251691 0.0 
0.24474 0.0443908 0.0 
1.62923e-06 1.33362e-08 0.0 
1.0057 -0.000700148 0.0 
0.00661371 0.000543604 0.0 
0.0432546 0.0102695 0.0 
0 0 0.0 
0.128628 0.0239118 0.0 
0.655624 0.11552 0.0 
0 0 0.0 
7.67499e-07 -1.15991e-08 0.0 
0.21667 0.012574 0.0 
0.662391 0.00750919 0.0 
0.946282 -0.00437545 0.0 
0.841026 0.341673 0.0 
0.536813 -0.0621246 0.0 
0.025028 0.00676161 0.0 
0.877428 -0.0132439 0.0 
0.353503 0.0905408 0.0 
1.00825 -0.00215184 0.0 
0.735367 0.301971 0.0 
0.15261 0.0170479 0.0 
-2.15427e-32 -1.85113e-32 0.0 
0.619936 0.0109034 0.0 
1.00055 0.00243729 0.0 
0.246557 0.0155787 0.0 
0.389428 -0.0247749 0.0 
0.59418 -0.0277788 0.0 
0.996527 -0.00571373 0.0 
0.257937 -0.0232488 0.0 
0.0288642 -0.00248045 0.0 
0.0753349 0.0155458 0.0 
0.859316 -0.402546 0.0 
0.226136 0.023806 0.0 
1.00735 0.000208707 0.0 
0.882855 0.34163 0.0 
-2.96713e-12 -1.0625e-13 0.0 
0.93961 0.0311514 0.0 
0.952497 -0.045963 0.0 
0.121397 -0.0258768 0.0 
1.01304 -0.131676 0.0 
0.677926 -0.367176 0.0 
1.00492 0.00113547 0.0 
0.298605 -0.0259232 0.0 
0.593542 -0.143097 0.0 
0.841054 0.0445243 0.0 
0.999257 -0.00321222 0.0 
0.999545 0.00105582 0.0 
4.21235e-20 -5.94395e-21 0.0 
0.841423 0.0233658 0.0 
0.945392 -0.0018895 0.0 
1.00129 -0.14399 0.0 
2.18782e-72 -1.1427e-73 0.0 
1.00053 0.00426102 0.0 
0.339523 -0.244076 0.0 
0.0380231 -0.00170159 0.0 
0.999954 -0.000492494 0.0 
0.999969 0.00202356 0.0 
-2.31491e-20 -1.17122e-21 0.0 
1.00001 0.00108412 0.0 
0.00415492 -0.000373616 0.0 
0.112535 0.00190381 0.0 
0.311345 -0.26275 0.0 
0.229803 0.0214571 0.0 
0.199454 0.0239142 0.0 
1.00498 -0.00287049 0.0 
0.138353 0.0042101 0.0 
1 0 0.0 
0.470229 -0.0258533 0.0 
1.00751 -0.00191022 0.0 
0.00832261 0.000371272 0.0 
0.0375683 -0.00862673 0.0 
0.350802 0.0508824 0.0 
0.284235 0.00942915 0.0 
5.68448e-28 2.68568e-29 0.0 
0.136444 -0.012396 0.0 
0.952835 0.00191221 0.0 
0.0703808 0.00605534 0.0 
5.72933e-201 3.95652e-202 0.0 
1.0165 0.116553 0.0 
0.936902 -0.0160738 0.0 
1.00763 -0.000645979 0.0 
0.349896 0.240607 0.0 
0.145002 -0.0821904 0.0 
0.895506 0.00453822 0.0 
0.607058 -0.039657 0.0 
0.52687 0.095805 0.0 
0.679763 0.0140462 0.0 
0.982356 0.175502 0.0 
1.06282 0.135496 0.0 
1.00936 0.000170321 0.0 
0.984927 -0.0308272 0.0 
-1.64543e-257 -1.36708e-258 0.0 
1.0056 0.00750524 0.0 
1.00712 -0.000328696 0.0 
0.509912 0.236667 0.0 
0.998844 -0.000125662 0.0 
0.0014512 -0.000401452 0.0 
0.047136 -0.0118219 0.0 
0.217788 -0.0186414 0.0 
2.52254e-06 -2.19405e-07 0.0 
0.350375 -0.141919 0.0 
0.828512 -0.0106949 0.0 
0.432421 0.0769132 0.0 
0.00303049 -0.000313442 0.0 
0.259763 0.0110434 0.0 