<VTKFile type="UnstructuredGrid" version="0.1" byte_order="LittleEndian">
  <UnstructuredGrid>
    <Piece NumberOfPoints="12790" NumberOfCells="25419">
      <Points>
        <DataArray type = "Float64" NumberOfComponents="3" format="ascii">
0 0 0.0 
14 0 0.0 
14 8 0.0 
0 8 0.0 
4.16782 4.09801 0.0 
4.04993 4.09236 0.0 
3.99114 3.95851 0.0 
4.3627 3.97012 0.0 
4.09208 3.95602 0.0 
4.36028 4.08767 0.0 
5.00905 4.08766 0.0 
4.20263 4.07568 0.0 
3.96554 4.00011 0.0 
4.98208 4.00532 0.0 
10.5039 7.07557 0.0 
4.05308 3.97209 0.0 
5.02189 4.01094 0.0 
4.09374 3.85313 0.0 
4.01323 3.99894 0.0 
4.85308 4.00911 0.0 
4.25007 4.10489 0.0 
4.17926 4.05465 0.0 
4.71752 3.98428 0.0 
5.64922 4.12461 0.0 
4.0106 4.0844 0.0 
4.37432 4.0854 0.0 
4.0229 4.0327 0.0 
4.22644 3.96696 0.0 
4.96284 4.02182 0.0 
4.36723 4.05555 0.0 
3.99561 3.97379 0.0 
3.96023 4.01528 0.0 
5.68918 1.03212 0.0 
4.32223 4.06737 0.0 
4.83051 4.02821 0.0 
4.17759 3.97818 0.0 
4.09533 4.03459 0.0 
4.00922 3.99881 0.0 
4.76306 4.03784 0.0 
8.03982 0.739812 0.0 
7.83533 3.08587 0.0 
4.10495 3.96896 0.0 
10.1583 2.49317 0.0 
11.4243 3.77723 0.0 
3.93682 3.99751 0.0 
4.11094 4.03801 0.0 
4.88872 3.99287 0.0 
4.93392 4.05029 0.0 
4.19353 4.07857 0.0 
4.16017 4.00382 0.0 
4.32407 4.07267 0.0 
4.19813 3.9367 0.0 
14 1.82768 0.0 
4.01706 3.99618 0.0 
4.02815 4.04832 0.0 
12.8147 7.55046 0.0 
3.96814 3.94854 0.0 
4.25508 4.06016 0.0 
4.00484 3.99321 0.0 
4.09805 3.948 0.0 
12.7254 2.64905 0.0 
4.14584 4.05809 0.0 
4.83195 4.02904 0.0 
4.02004 4.03743 0.0 
4.61386 4.06549 0.0 
4.01647 3.99236 0.0 
4.18458 4.04429 0.0 
4.14183 3.94415 0.0 
4.97466 4.02609 0.0 
4.58674 3.97959 0.0 
4.0339 4.05256 0.0 
4.01921 3.99337 0.0 
4.55654 3.97758 0.0 
3.99379 4.00703 0.0 
4.24578 4.08867 0.0 
3.97337 4.08435 0.0 
4.17785 3.95317 0.0 
4.77401 4.05596 0.0 
5.00785 4.00312 0.0 
10.8833 7.73481 0.0 
1.42766 7.23915 0.0 
14 6.11123 0.0 
9.3283 1.96676 0.0 
4.72201 4.04286 0.0 
3.96293 3.99513 0.0 
7.85159 3.48486 0.0 
4.11524 4.05302 0.0 
7.45265 3.89372 0.0 
14 3.48715 0.0 
3.93736 4.10369 0.0 
3.88293 4.06948 0.0 
4.89713 4.11447 0.0 
4.05175 3.95375 0.0 
4.04894 3.98469 0.0 
9.81803 4.81478 0.0 
3.99922 3.99464 0.0 
5.03684 4.01469 0.0 
4.03113 4.02905 0.0 
9.95529 0.776257 0.0 
4.45796 4.03931 0.0 
3.9052 4.17922 0.0 
4.14038 4.05483 0.0 
2.7796 2.2862 0.0 
14 5.21618 0.0 
4.08257 3.97188 0.0 
3.12084 3.51455 0.0 
5.01259 4.00155 0.0 
4.28749 4.07809 0.0 
3.94943 3.96456 0.0 
4.7663 4.05445 0.0 
4.9802 3.99702 0.0 
4.80536 4.01156 0.0 
4.0293 3.98313 0.0 
5.012 4.10727 0.0 
3.16593 3.27697 0.0 
4.35343 3.94951 0.0 
13.0314 2.11246 0.0 
4.15124 4.04466 0.0 
4.35336 4.06184 0.0 
3.05349 4.57182 0.0 
4.5613 1.56989 0.0 
4.34569 4.08404 0.0 
5.36746 1.46191 0.0 
4.37798 8 0.0 
4.12623 4.0709 0.0 
4.08373 4.05666 0.0 
4.09568 4.05562 0.0 
4.96481 4.0084 0.0 
3.97235 3.97115 0.0 
4.27852 0 0.0 
5.04845 4.04311 0.0 
4.29262 4.07791 0.0 
2.88794 2.91404 0.0 
10.7485 5.34402 0.0 
4.13434 4.07811 0.0 
4.20108 3.96697 0.0 
7.65606 4.16789 0.0 
4.00891 4.00797 0.0 
4.70266 8 0.0 
4.16432 3.95432 0.0 
4.41372 3.97232 0.0 
4.01234 4.02852 0.0 
4.35017 3.94589 0.0 
9.96604 3.65951 0.0 
4.22225 3.98357 0.0 
13.8157 6.13911 0.0 
5.52872 3.97338 0.0 
4.1741 4.07586 0.0 
4.14477 3.96764 0.0 
4.95303 4.02378 0.0 
4.76063 3.98705 0.0 
4.14365 4.0461 0.0 
4.67359 6.29228 0.0 
4.04955 3.95606 0.0 
3.91267 2.38613 0.0 
4.02873 4.0411 0.0 
4.88146 4.04087 0.0 
11.1856 5.04421 0.0 
4.08859 4.05676 0.0 
4.0826 3.93583 0.0 
4.70061 3.98401 0.0 
4.12124 3.98374 0.0 
4.25731 4.0827 0.0 
4.6487 4.09228 0.0 
8.82898 7.40191 0.0 
4.01726 4.00142 0.0 
4.24743 3.99271 0.0 
1.65747 3.8773 0.0 
4.99458 4.03862 0.0 
4.95677 3.98798 0.0 
4.02244 4.02798 0.0 
4.2281 3.96571 0.0 
4.12635 4.07409 0.0 
0 1.4212 0.0 
4.25778 4.0794 0.0 
1.50573 1.30828 0.0 
4.18123 4.0633 0.0 
4.5856 4.05753 0.0 
7.78022 2.39624 0.0 
7.34191 3.93408 0.0 
4.47657 4.06573 0.0 
4.9908 4.01037 0.0 
4.11443 3.96795 0.0 
4.0644 3.93891 0.0 
12.8718 1.38827 0.0 
4.16503 4.11076 0.0 
12.9735 2.89805 0.0 
4.3555 4.07071 0.0 
4.40708 4.0791 0.0 
4.19206 3.91938 0.0 
11.9168 2.40447 0.0 
4.41558 4.05658 0.0 
4.09641 3.95124 0.0 
4.12454 3.92729 0.0 
4.08491 4.0641 0.0 
3.96293 4.03138 0.0 
4.96985 4.00631 0.0 
4.06298 3.99231 0.0 
4.35916 4.0592 0.0 
5.93861 4.53453 0.0 
4.78368 4.03622 0.0 
7.90266 7.80758 0.0 
3.99252 4.00665 0.0 
4.13546 3.9669 0.0 
4.17636 4.06982 0.0 
4.01378 4.004 0.0 
4.78766 4.06715 0.0 
3.94066 3.96869 0.0 
0.293813 2.30474 0.0 
3.95819 3.97698 0.0 
5.2424 4.03071 0.0 
4.12787 4.05353 0.0 
4.23165 4.07938 0.0 
4.38965 4.07646 0.0 
4.15636 4.04974 0.0 
3.95778 3.98461 0.0 
4.78708 4.02618 0.0 
3.9419 3.97853 0.0 
4.19057 4.05281 0.0 
4.02433 3.97472 0.0 
4.10081 3.94382 0.0 
4.17859 4.06406 0.0 
5.8176 3.84856 0.0 
6.88398 4.79117 0.0 
3.99651 4.05409 0.0 
4.47985 3.97314 0.0 
4.22913 4.08121 0.0 
5.00368 4.02219 0.0 
4.01874 3.97656 0.0 
3.9771 4.03148 0.0 
4.44831 3.97286 0.0 
4.34707 4.05408 0.0 
3.92289 3.95232 0.0 
4.15561 4.10177 0.0 
4.18309 4.12442 0.0 
3.96476 4.03852 0.0 
4.39631 4.08365 0.0 
3.93472 3.98311 0.0 
3.96822 4.02719 0.0 
3.97233 4.04194 0.0 
3.98573 3.91699 0.0 
4.04162 4.00806 0.0 
3.92977 4.00134 0.0 
4.20876 3.92492 0.0 
3.92251 4.00785 0.0 
4.3687 3.97094 0.0 
4.30929 4.04286 0.0 
4.05549 4.03483 0.0 
5.15491 3.95658 0.0 
8.14258 4.96734 0.0 
5.06164 4.02608 0.0 
8.93868 4.61646 0.0 
4.59134 4.05594 0.0 
10.4317 2.43358 0.0 
3.94564 3.99975 0.0 
4.25738 4.07615 0.0 
11.315 5.33497 0.0 
4.00612 4.04547 0.0 
5.0401 4.02083 0.0 
4.98371 4.01321 0.0 
4.27571 4.05016 0.0 
4.91832 3.97868 0.0 
4.26993 4.09614 0.0 
4.00131 3.99967 0.0 
4.27899 4.06915 0.0 
4.91897 4.01486 0.0 
4.13949 4.14563 0.0 
4.36888 4.08399 0.0 
4.1384 3.95607 0.0 
4.08583 4.02136 0.0 
3.98196 3.98783 0.0 
0.200421 3.5694 0.0 
4.12705 3.9761 0.0 
4.05428 3.94079 0.0 
9.70989 7.75915 0.0 
3.8259 6.19389 0.0 
4.02341 4.03456 0.0 
4.52449 4.30955 0.0 
4.52724 7.41561 0.0 
5.05919 4.01855 0.0 
4.02169 4.00411 0.0 
4.16431 3.96712 0.0 
4.22714 3.92146 0.0 
4.01421 4.01997 0.0 
4.33856 4.07149 0.0 
5.01331 3.98969 0.0 
4.99609 4.00352 0.0 
3.02327 4.03645 0.0 
4.41355 3.95634 0.0 
4.06103 3.9941 0.0 
4.0361 4.22831 0.0 
1.24078 0.550265 0.0 
9.10545 7.45594 0.0 
2.38032 0.204862 0.0 
4.23309 3.95089 0.0 
4.37243 3.94474 0.0 
3.91303 4.09557 0.0 
4.26148 3.94171 0.0 
4.01517 4.03055 0.0 
3.99135 4.00607 0.0 
3.99882 3.99972 0.0 
7.1003 4.12568 0.0 
7.9963 4.38152 0.0 
5.1555 4.17357 0.0 
4.59772 3.91409 0.0 
3.99908 3.98836 0.0 
4.39092 4.05736 0.0 
4.12151 3.94609 0.0 
4.63693 3.98134 0.0 
4.12434 4.06442 0.0 
9.29055 5.20797 0.0 
3.96398 4.0927 0.0 
8.63777 4.82777 0.0 
4.97222 4.02124 0.0 
4.12765 3.95773 0.0 
4.21664 3.9481 0.0 
6.25452 4.08467 0.0 
4.00471 4.01201 0.0 
3.89932 4.07723 0.0 
3.93357 4.08306 0.0 
4.49541 3.97562 0.0 
7.49814 1.66258 0.0 
8.95705 3.618 0.0 
5.1327 4.04445 0.0 
4.71481 4.04332 0.0 
5.00097 4.00145 0.0 
4.39502 4.06883 0.0 
4.47779 4.09651 0.0 
6.32134 0.552942 0.0 
4.04631 3.97523 0.0 
3.83595 4.0246 0.0 
3.9901 3.98452 0.0 
4.12408 3.94161 0.0 
0.466363 1.55134 0.0 
4.84057 3.99139 0.0 
4.01283 4.02049 0.0 
4.00958 3.9879 0.0 
4.08139 3.94144 0.0 
4.11774 4.04984 0.0 
4.03513 3.9876 0.0 
4.70476 4.04361 0.0 
9.84809 2.57899 0.0 
4.20398 4.03825 0.0 
8.93353 8 0.0 
3.99956 4.01717 0.0 
11.8467 7.80818 0.0 
4.57025 4.05904 0.0 
4.32504 4.05592 0.0 
4.9749 3.97836 0.0 
4.33555 4.06931 0.0 
4.22534 3.96622 0.0 
4.45804 3.97386 0.0 
3.59386 3.60045 0.0 
4.17984 4.07874 0.0 
4.60205 3.95858 0.0 
4.07783 4.0338 0.0 
3.84347 2.0849 0.0 
4.74649 3.98583 0.0 
6.10057 4.15061 0.0 
4.2489 4.09629 0.0 
5.06347 3.99507 0.0 
4.1973 4.05198 0.0 
4.2295 4.0772 0.0 
2.84695 6.56376 0.0 
5.08198 4.04957 0.0 
5.02947 4.00625 0.0 
6.6584 1.67484 0.0 
4.71415 4.04435 0.0 
4.2792 4.0666 0.0 
4.84376 3.99048 0.0 
4.00756 4.02287 0.0 
4.13876 3.99016 0.0 
4.01465 3.91445 0.0 
4.7008 3.98503 0.0 
4.00436 3.99818 0.0 
4.4751 4.06524 0.0 
3.99883 4.01382 0.0 
8.76026 4.3154 0.0 
10.4203 7.38047 0.0 
10.5495 8 0.0 
4.05772 4.03742 0.0 
5.06785 4.12387 0.0 
4.01165 4.04753 0.0 
4.67684 3.98266 0.0 
12.8853 2.3757 0.0 
4.20227 4.08039 0.0 
4.23985 4.08128 0.0 
4.87039 4.05396 0.0 
4.13381 4.04659 0.0 
4.34931 4.12039 0.0 
4.10203 3.95404 0.0 
3.99752 4.02893 0.0 
4.01884 3.99521 0.0 
4.26259 4.0847 0.0 
4.15582 4.07076 0.0 
4.20717 4.06686 0.0 
4.03174 3.97724 0.0 
4.47337 4.06638 0.0 
3.88075 3.94894 0.0 
3.88357 4.09673 0.0 
4.01204 4.00974 0.0 
4.9921 3.96662 0.0 
10.8031 3.94613 0.0 
4.8837 4.02134 0.0 
4.08637 3.98671 0.0 
8.1554 7.24604 0.0 
4.31033 1.42271 0.0 
4.06974 4.04112 0.0 
11.5292 3.58171 0.0 
0.701186 4.76801 0.0 
3.98467 3.93797 0.0 
4.22135 3.95386 0.0 
4.00774 3.99043 0.0 
4.0911 3.98345 0.0 
4.14295 3.97632 0.0 
4.18445 4.06516 0.0 
7.57205 0.294679 0.0 
4.1185 4.05832 0.0 
5.00447 3.99846 0.0 
5.0218 3.98124 0.0 
0.782577 7.79023 0.0 
4.19507 4.0651 0.0 
4.0766 3.95386 0.0 
5.10311 4.0306 0.0 
4.00578 3.99049 0.0 
4.01408 3.98531 0.0 
4.39799 3.94186 0.0 
4.10808 3.96074 0.0 
4.08645 3.96932 0.0 
4.34968 3.96973 0.0 
3.98027 4.05285 0.0 
12.2868 4.26691 0.0 
12.5336 5.31907 0.0 
6.22674 4.16555 0.0 
11.2881 2.28569 0.0 
5.07095 2.11145 0.0 
4.22898 4.08419 0.0 
4.04077 3.99338 0.0 
4.16147 4.0706 0.0 
4.03016 3.93429 0.0 
4.10231 3.92419 0.0 
4.63925 4.03951 0.0 
13.1066 7.48347 0.0 
4.38318 4.05579 0.0 
4.14255 4.03376 0.0 
13.4588 2.01213 0.0 
4.05693 3.98896 0.0 
6.5806 7.26297 0.0 
4.72331 3.9856 0.0 
8.65102 4.60328 0.0 
5.00127 3.99353 0.0 
5.18793 4.05304 0.0 
13.1208 5.83902 0.0 
4.85427 4.02513 0.0 
4.00169 4.00678 0.0 
4.01883 3.98263 0.0 
3.98111 4.00805 0.0 
4.44199 7.65296 0.0 
4.03664 4.0119 0.0 
10.4907 4.55108 0.0 
3.99352 3.97666 0.0 
4.17387 3.91323 0.0 
4.8474 4.18718 0.0 
4.67002 3.84867 0.0 
5.72684 4.01219 0.0 
3.98468 3.9804 0.0 
4.27492 4.05293 0.0 
3.96627 3.96959 0.0 
3.99577 3.99636 0.0 
4.21305 4.06497 0.0 
4.14777 3.96189 0.0 
11.5775 5.81489 0.0 
12.3354 6.04076 0.0 
[...]
<PointData>
  <DataArray type = "Float64" Name="Vitesse" NumberOfComponents="3" format="ascii">
1 0 0.0 
1.00157 0 0.0 
0.999572 0 0.0 
1 0 0.0 
1.02988 0.172261 0.0 
0.970252 0.267424 0.0 
0.828908 -0.293662 0.0 
0.00953168 0.000660054 0.0 
0.622554 -0.0814449 0.0 
0.415264 0.00762691 0.0 
0.566113 -0.0449417 0.0 
0.442771 0.051391 0.0 
0.64635 -0.0584695 0.0 
0.00245006 -0.000470599 0.0 
1.00407 -0.00183912 0.0 
0.221369 -0.0459477 0.0 
0.0434782 -0.00942362 0.0 
1.05175 -0.132182 0.0 
0 0 0.0 
2.05679e-99 -1.51019e-100 0.0 
0.948296 0.0971692 0.0 
0 0 0.0 
0.0128868 0.000767038 0.0 
0.874177 -0.0228871 0.0 
0.884664 0.244887 0.0 
0.356249 0.00405531 0.0 
0.553339 0.28242 0.0 
0.0163019 0.000881875 0.0 
0.0417177 -0.00615369 0.0 
0 0 0.0 
0.747639 -0.384236 0.0 
0.678479 0.0253714 0.0 
1.00907 -0.000472927 0.0 
6.92218e-06 1.59139e-07 0.0 
2.01895e-05 -1.19603e-06 0.0 
0 0 0.0 
0 0 0.0 
0 0 0.0 
1.4006e-05 -1.13173e-06 0.0 
1.00799 0.000261633 0.0 
1.0092 0.00216707 0.0 
0.0505587 -0.00555089 0.0 
1.00896 0.00291046 0.0 
0.978979 0.0116606 0.0 
0.763717 -0.0386522 0.0 
0 0 0.0 
0.00914537 0.000915063 0.0 
0.19201 -0.0201037 0.0 
0.568723 0.0727639 0.0 
8.43728e-285 -6.24029e-286 0.0 
0.095337 0.00285978 0.0 
0.756479 -0.0415367 0.0 
1.00104 0.00118745 0.0 
0 0 0.0 
0.835398 0.359494 0.0 
1.00015 -0.000418036 0.0 
0.832608 -0.192177 0.0 
-1.14254e-31 -5.54634e-33 0.0 
-1.7004e-24 1.44048e-24 0.0 
0.83556 -0.115939 0.0 
0.999386 0.00326183 0.0 
0.0957913 0.0156864 0.0 
0.00291681 -0.000247634 0.0 
0.715398 0.359387 0.0 
0.114934 -0.00880129 0.0 
0 0 0.0 
0 0 0.0 
0.742745 -0.0649506 0.0 
0.0664396 -0.0100679 0.0 
1.94502e-79 2.15987e-80 0.0 
0.868073 0.349557 0.0 
0 0 0.0 
0.00542455 0.000435223 0.0 
0.25367 0.0704602 0.0 
0.65125 0.0601603 0.0 
0.846632 0.172759 0.0 
0.396592 -0.0166489 0.0 
0.136339 -0.0133972 0.0 
0.0247188 -0.00490114 0.0 
1.0032 -0.000487282 0.0 
1.00082 0.000962155 0.0 
0.999032 -0.000223965 0.0 
1.00807 0.00132979 0.0 
1.05481e-05 -8.02998e-07 0.0 
0.671339 -0.082098 0.0 
1.00859 0.0026972 0.0 
0.103815 0.0197981 0.0 
0.861033 0.00479702 0.0 
1.00033 0.00177216 0.0 
0.875424 0.11599 0.0 
0.870255 0.0505143 0.0 
0.778273 -0.0456145 0.0 
0.96441 -0.236742 0.0 
0 0 0.0 
1.00946 -0.00526161 0.0 
0.198865 -0.294021 0.0 
0.0617533 -0.00944966 0.0 
0.130477 0.0491708 0.0 
1.00674 0.000830138 0.0 
1.00403e-253 3.28871e-255 0.0 
0.934157 0.0908591 0.0 
0.000513772 4.33711e-05 0.0 
1.00113 -0.00550603 0.0 
0.998524 0.0006304 0.0 
1.55019e-13 -9.39435e-15 0.0 
0.989992 -0.0092974 0.0 
0.0371457 0.00044228 0.0 
0.27443 0.0109097 0.0 
0.794724 -0.130899 0.0 
0.118253 -0.0118438 0.0 
0.0111163 0.000147303 0.0 
0 0 0.0 
-6.72345e-30 1.63349e-30 0.0 
0.739313 -0.0498006 0.0 
0.993867 -0.011092 0.0 
0.348022 0.00379226 0.0 
1.00169 0.00215451 0.0 
-1.55283e-84 -2.65947e-85 0.0 
6.20628e-234 2.0465e-235 0.0 
0.991267 0.0110844 0.0 
1.00905 -0.00343071 0.0 
0.347763 0.00698103 0.0 
1.01002 -0.00117056 0.0 
1.00774 0 0.0 
0.717982 0.145263 0.0 
0.609483 0.162282 0.0 
0.435031 0.108521 0.0 
0.0024611 -0.000379087 0.0 
0.741017 -0.206732 0.0 
1.0062 0 0.0 
0.19739 -0.0263295 0.0 
0.260108 0.01095 0.0 
0.997969 -0.00747076 0.0 
1.00271 -0.0076911 0.0 
0.851914 0.168197 0.0 
0.0170246 0.00049779 0.0 
0.946008 -0.00688301 0.0 
3.03133e-128 2.30113e-128 0.0 
1.00834 0 0.0 
0.391242 -0.0192557 0.0 
0.00046165 2.1019e-05 0.0 
0.582418 0.343924 0.0 
0.413475 0.00279313 0.0 
1.00557 -0.00312161 0.0 
0 0 0.0 
0.998992 -0.00034937 0.0 
0.451619 0.0118706 0.0 
0.580615 0.0820972 0.0 
0.0241051 -0.00137383 0.0 
0.0446234 -0.00628605 0.0 
0.00543435 0.00031526 0.0 
-5.59212e-75 -9.57743e-76 0.0 
1.01233 0.00360468 0.0 
0.934125 -0.234522 0.0 
1.00786 -0.00958007 0.0 
0.732185 0.332556 0.0 
0.0937871 -0.0106799 0.0 
1.0004 -0.0121751 0.0 
0.558768 0.144104 0.0 
1.06203 -0.191929 0.0 
0.00841911 0.000742078 0.0 
0 0 0.0 
0.465754 0.0363054 0.0 
0.478187 -0.0249342 0.0 
1.00688 -0.000841431 0.0 
0 0 0.0 
0 0 0.0 
0.998232 0.000220173 0.0 
0.145445 -0.0208988 0.0 
0.0853999 0.00421754 0.0 
0.3356 0.176573 0.0 
0.0428563 0.00100403 0.0 
0.802466 0.165197 0.0 
1 0 0.0 
0.373655 0.027651 0.0 
1.00055 -0.00130857 0.0 
0.111634 0.0113642 0.0 
0.00511468 -0.000141837 0.0 
1.0089 0.00138494 0.0 
0.767056 0.00392884 0.0 
0.014314 -0.000156874 0.0 
0.0196569 -0.00529247 0.0 
0.0643957 -0.000217408 0.0 
1.06087 -0.227667 0.0 
1.00219 0.00162781 0.0 
1.092 0.185017 0.0 
0.999059 0.00183092 0.0 
0.0473579 -0.00170164 0.0 
0.215005 -0.00213771 0.0 
1.01873 -0.078393 0.0 
1.00357 0.00472686 0.0 
5.54772e-236 1.82935e-237 0.0 
0.753655 -0.101596 0.0 
1.05423 -0.134359 0.0 
0.824283 0.225091 0.0 
0.707011 0.09654 0.0 
-2.00422e-13 1.92304e-14 0.0 
0 0 0.0 
0 0 0.0 
1.01191 -0.0118925 0.0 
0.00638821 -0.000870466 0.0 
1.00795 -0.000194627 0.0 
0.283667 0.0465966 0.0 
0.0580478 -0.00319405 0.0 
0.370387 0.0477185 0.0 
0 0 0.0 
0.250695 -0.0213156 0.0 
0.797866 -0.105862 0.0 
0.999995 -0.000270954 0.0 
0.743048 -0.134847 0.0 
0.247471 -0.0122054 0.0 
0.0105888 0.00152361 0.0 
0.446062 0.0407314 0.0 
0.163425 -0.000815045 0.0 
0 0 0.0 
0.720328 -0.112221 0.0 
-3.34923e-73 3.0614e-74 0.0 
0.77562 -0.0907122 0.0 
0 0 0.0 
0.573719 -0.209888 0.0 
0.915676 -0.130896 0.0 
0.152038 0.0157013 0.0 
0.974613 0.0129737 0.0 
1.01068 -0.00584955 0.0 
0.777272 0.263276 0.0 
0.0212366 0.000787736 0.0 
0.506802 0.0485728 0.0 
0.0630434 -0.0176562 0.0 
0.608443 -0.257011 0.0 
0.661873 0.155675 0.0 
0.00904741 0.00106942 0.0 
0 0 0.0 
0.84348 -0.0939735 0.0 
1.068 0.1916 0.0 
1.10755 0.168506 0.0 
0.724255 0.12194 0.0 
0.308381 2.97573e-05 0.0 
0.783127 -0.0699761 0.0 
0.673808 0.099955 0.0 
0.721784 0.156555 0.0 
0.919604 -0.194927 0.0 
0 0 0.0 
0.778588 -0.0258074 0.0 
0.93406 -0.05808 0.0 
0.793171 -0.0101533 0.0 
0.00130504 0.00013494 0.0 
0 0 0.0 
-8.77575e-24 -2.87045e-24 0.0 
0.448409 0.0286926 0.0 
1.00924 -0.00402079 0.0 
0.111148 -0.015233 0.0 
1.00706 -0.00384376 0.0 
-1.05822e-15 1.72498e-18 0.0 
1.00855 0.00349828 0.0 
0.736697 -0.0389715 0.0 
0.282021 0.019828 0.0 
0.996789 -0.00908586 0.0 
0.761689 0.328098 0.0 
0.0775749 -0.0141302 0.0 
0.0230195 -0.00470619 0.0 
0 0 0.0 
0.156208 0.00738746 0.0 
0.755846 0.0626244 0.0 
-3.17868e-27 6.62941e-27 0.0 
0.0409059 0.00322054 0.0 
-2.7672e-16 3.61479e-17 0.0 
1.0742 0.179666 0.0 
0.329249 0.00418155 0.0 
0.406211 -0.0278803 0.0 
0 0 0.0 
0.590365 -0.227604 0.0 
0.999998 -3.00799e-05 0.0 
1.00121e-134 -1.10712e-135 0.0 
1.05487 -0.249453 0.0 
1.00541 -0.000431292 0.0 
1.00848 0.00667705 0.0 
0.611184 0.306627 0.0 
1.09105 0.0202304 0.0 
1.00844 0.00117018 0.0 
0.0871919 -0.00952159 0.0 
0 0 0.0 
0.0226986 -0.000719813 0.0 
0.94677 -0.053103 0.0 
0.102194 0.0607688 0.0 
0.0634357 0.000765278 0.0 
0.105515 0.0188715 0.0 
0.00670424 -0.00194387 0.0 
0.985835 0.00259932 0.0 
0.235798 0.00519341 0.0 
0 0 0.0 
0.998148 0.128509 0.0 
1.00049 -0.000461443 0.0 
1.00647 -0.000837955 0.0 
1.002 -0.000370773 0.0 
0.377596 -0.00627569 0.0 
0.428062 0.00417909 0.0 
0.87401 0.0875017 0.0 
0.549516 -0.0105769 0.0 
0.603595 0.337048 0.0 
0.309144 0.0210725 0.0 
0.0491723 -0.117682 0.0 
0.87953 -0.00629889 0.0 
1.00999 -0.00462406 0.0 
1.00861 -0.0426779 0.0 
0.791911 0.0108865 0.0 
0.479265 -0.445466 0.0 
-9.37099e-148 -1.76114e-149 0.0 
0.771248 -0.0830267 0.0 
0.00517272 0.000290749 0.0 
0.516644 0.101507 0.0 
1.00829 -0.00416724 0.0 
0.859486 0.152963 0.0 
1.00826 -0.00399585 0.0 
0.0443353 -0.00691298 0.0 
0.385055 -0.0298692 0.0 
0.463081 -0.0132131 0.0 
0.736022 -0.0105193 0.0 
0.0607373 0.067075 0.0 
0.864388 0.0667295 0.0 
0.850456 0.10492 0.0 
3.93444e-06 2.65639e-07 0.0 
1.00887 0.00077407 0.0 
1.009 0.000978012 0.0 
0.255895 -0.0227817 0.0 
1.75235e-08 -8.69178e-10 0.0 
0.00769555 -0.00618178 0.0 
0.0166083 0.000586249 0.0 
0.525929 -0.00785191 0.0 
1.00848 3.25262e-05 0.0 
0.107388 -0.0122739 0.0 
0.888924 0.00681802 0.0 
0.594586 -0.345675 0.0 
0.868327 -0.0974097 0.0 
1.00004 -0.000398873 0.0 
0.00140156 8.21806e-05 0.0 
0.208181 0.12937 0.0 
0.068697 -0.0433564 0.0 
1.0221 -0.184674 0.0 
5.85224e-06 1.25495e-06 0.0 
0 0 0.0 
-1.62246e-44 6.70755e-46 0.0 
1.00916 0.00192179 0.0 
0 0 0.0 
1.00661 0 0.0 
0.397294 0.30977 0.0 
1.00146 -0.000297506 0.0 
0.00970121 -0.000459134 0.0 
0 0 0.0 
0.187369 0.0112575 0.0 
0.0180843 0.000267761 0.0 
0.0322996 0.0011649 0.0 
4.92102e-07 6.88779e-08 0.0 
0.981444 -0.0253838 0.0 
0.636985 0.0890731 0.0 
0.252856 0.00903127 0.0 
0 0 0.0 
1.00706 -0.00731967 0.0 
0.0109832 0.000422295 0.0 
0.941206 -0.0144988 0.0 
0.811053 0.0785493 0.0 
0.121312 0.0111106 0.0 
0 0 0.0 
0.388849 0.0347305 0.0 
1.00359 0.0041242 0.0 
0.260599 -0.0288542 0.0 
0.0531184 -0.00215604 0.0 
1.0097 0.000821562 0.0 
0.00346029 -0.000329898 0.0 
-8.64062e-29 1.64761e-30 0.0 
0.0107229 0.000284578 0.0 
0.475597 0.331144 0.0 
0 0 0.0 
0.970838 -0.218013 0.0 
0.000121824 9.46455e-06 0.0 
0 0 0.0 
0.00742345 -0.000217651 0.0 
0.311673 0.266037 0.0 
1.00655 -0.00507833 0.0 
1.00418 -0.00118873 0.0 
1.00382 0 0.0 
7.73393e-06 2.52986e-06 0.0 
0.858623 -0.0507026 0.0 
0.790916 0.342684 0.0 
0.0104645 0.000912122 0.0 
1.00131 0.00270695 0.0 
0.584303 0.0715568 0.0 
0.474093 0.0421714 0.0 
0.18229 -0.0179964 0.0 
0 0 0.0 
0.988758 0.0516069 0.0 
0.630766 -0.0740158 0.0 
0.607967 0.315957 0.0 
0 0 0.0 
0.505547 0.0380879 0.0 
0.519661 0.0823343 0.0 
0.131256 0.0112897 0.0 
0.222305 -0.061869 0.0 
0.0215858 -0.00135853 0.0 
0.875475 -0.0566812 0.0 
0.886927 0.0653816 0.0 
0 0 0.0 
0.308663 0.0212996 0.0 
0.890409 -0.0028087 0.0 
0.00232298 -0.000206646 0.0 
0 0 0.0 
1.00776 -0.000848985 0.0 
1.00782 -0.00349398 0.0 
0.0517116 0.0118562 0.0 
1.01826 0.0125841 0.0 
0.999818 0.000767511 0.0 
0.880571 -0.225639 0.0 
0.318643 -0.00528474 0.0 
1.45667e-11 -7.88173e-12 0.0 
0 0 0.0 
0 0 0.0 
0.164898 0.018654 0.0 
1.00807 8.50908e-05 0.0 
0.319895 0.0635698 0.0 
0.0282893 0.0068233 0.0 
0.181293 0.0237254 0.0 
1.00024 0.000136304 0.0 
0.116742 0.0166406 0.0 
0.801206 -0.13994 0.0 
0.156932 -0.0162132 0.0 
0.0719381 -0.0609417 0.0 
0.0770688 -0.0355577 0.0 
0.47024 0.00419704 0.0 
0.355461 -0.0320085 0.0 
0.0969595 -0.00713196 0.0 
0.00825884 0.000557605 0.0 
0.759559 0.198035 0.0 
0.983847 -0.00535882 0.0 
0.994746 -0.00106596 0.0 
0.962196 -0.0112571 0.0 
1.00633 0.00465484 0.0 
1.0126 -0.00259776 0.0 
0.58926 0.0590486 0.0 
0 0 0.0 
0.479787 0.0710101 0.0 
1.0049 -0.266558 0.0 
1.08617 -0.166164 0.0 
0 0 0.0 
0.999894 -0.000380593 0.0 
6.29354e-238 2.07528e-239 0.0 
0 0 0.0 
1.00128 0.00163066 0.0 
0 0 0.0 
1.00942 -0.0005558 0.0 
0.00360884 0.000378152 0.0 
1.00706 -0.00417164 0.0 
0.0639059 0.0142296 0.0 
0.344424 -0.0257182 0.0 
0.998241 -0.00108872 0.0 
-1.21337e-27 1.2303e-28 0.0 
-8.49043e-58 -1.37009e-57 0.0 
0.13361 -0.065773 0.0 
0.504533 0.010044 0.0 
1.00802 0.000762049 0.0 
0 0 0.0 
1.01398 -0.00911592 0.0 
0.708002 -0.377338 0.0 
1.07377 -0.098273 0.0 
1.06585 -0.0365621 0.0 
1.05592 0.0034382 0.0 
0.419835 -0.00203205 0.0 
0.656643 -0.285366 0.0 
0 0 0.0 
0.756449 -0.179712 0.0 
0.245647 -0.292611 0.0 
0.0481405 0.00771326 0.0 
0.197244 -0.00853254 0.0 
1.00086 -0.00490952 0.0 
0.999351 -0.00263431 0.0 
1.008 -0.00145494 0.0 
0.71546 -0.266816 0.0 
1.0009 0.00157481 0.0 
0.29362 0.121185 0.0 
0.0926357 0.00138239 0.0 
1.32044e-05 -3.78408e-06 0.0 
0.0223641 -0.00217291 0.0 
0.329837 -0.324714 0.0 
0 0 0.0 
0.278646 -0.0164907 0.0 
0.716455 0.337335 0.0 
0.52542 -0.0566449 0.0 
0.00377641 -0.000380477 0.0 
0.648031 0.256744 0.0 
0.711947 0.27133 0.0 
0.157541 -0.0182479 0.0 
1.01062 -0.00829685 0.0 
1.01199 -0.00305213 0.0 
1.00148 0.00046175 0.0 
1.00234 0.00196774 0.0 
0 0 0.0 
0.767417 0.120807 0.0 
0.0150315 0.000960283 0.0 
0.0293089 -0.00498214 0.0 
0.452797 0.337521 0.0 
1.05491 0.00989666 0.0 
0.233256 0.0196224 0.0 
0.455661 0.0250749 0.0 
1.01929 0.00974414 0.0 
0.676985 0.241936 0.0 
1.00112 0 0.0 
0.999924 0.00251208 0.0 
0.709094 0.375655 0.0 
0.0871898 0.0317233 0.0 
1.00453 -0.00224636 0.0 
1.00232 0.00245128 0.0 
0.142829 -0.033018 0.0 
1.00604 0.00207064 0.0 
0.72818 0.308505 0.0 
1.00035 -0.000262626 0.0 
0.90497 0.0261477 0.0 
1.00826 0.00071106 0.0 
0.345532 -0.0242121 0.0 
1.72312e-09 -1.84182e-10 0.0 
0.607968 -0.291321 0.0 
0.024152 0.00137434 0.0 
1.02019 -0.251917 0.0 
0.0112648 0.000678328 0.0 
1.00005 -0.000598387 0.0 
0 0 0.0 
0.943193 0.00425623 0.0 
1.00186 -0.00272258 0.0 
0.554238 -0.0630985 0.0 
0.53591 0.0992429 0.0 
1.00625 -0.000309776 0.0 
0.762361 0.305701 0.0 
1.01484 0.0145055 0.0 
0.461182 -0.191682 0.0 
0 0 0.0 
0.424885 -0.123456 0.0 
1.01142 0.00472331 0.0 
0 0 0.0 
0.578931 -0.432459 0.0 
0.132477 0.00836931 0.0 
0.295659 0.00814345 0.0 
1.00031 0 0.0 
0.449073 -0.10021 0.0 
0.541396 -0.0336947 0.0 
1.00846 0.000690933 0.0 
1.89942e-238 6.26327e-240 0.0 
0.0771413 0.0628435 0.0 
0.786786 0.149323 0.0 
0.722408 0.054361 0.0 
0.494862 0.106986 0.0 
1.10124 -0.00805088 0.0 
0.0663326 -0.00151803 0.0 
0.781351 0.367013 0.0 
0.835069 0.13869 0.0 
0.0117029 0.000812471 0.0 
0.0950212 0.00163094 0.0 
1.00181 -0.00130057 0.0 
0.705216 -0.0869644 0.0 
0 0 0.0 
0.996321 -0.0139753 0.0 
0.471553 -0.0833663 0.0 
0.0770807 -0.00654827 0.0 
0.00279724 -0.000217877 0.0 
0.46008 -0.0416536 0.0 
1 0 0.0 
0.832815 -0.216355 0.0 
0.759458 0.372887 0.0 
1.00728 0.000627983 0.0 
0 0 0.0 
0.0190899 -0.00103208 0.0 
0.999428 0.000250966 0.0 
-4.8456e-247 3.33277e-248 0.0 
1.00929 0 0.0 
0.74894 0.277583 0.0 
0 0 0.0 
0.999278 -0.000284618 0.0 
-1.50425e-70 -1.57318e-70 0.0 
0.107563 0.0061197 0.0 
0.150542 0.017881 0.0 
0.994121 0.00236421 0.0 
1.00732 0 0.0 
1.00176 -0.00142308 0.0 
0.789184 0.319272 0.0 
0.253746 -0.00762913 0.0 
0.00604737 0.000575002 0.0 
0.853677 0.215828 0.0 
0.490757 -0.0481285 0.0 
0.769442 0.365317 0.0 
0.747326 0.0637135 0.0 
0.999584 -0.000370059 0.0 
1.00087 0.00237262 0.0 
0.86364 0.354537 0.0 
0.490417 -0.170964 0.0 
0.815217 0.356784 0.0 
0.295349 0.00254683 0.0 
1.01065 -0.00349713 0.0 
0.943564 -0.335335 0.0 
0.573186 -0.0599531 0.0 
0.745721 -0.0897642 0.0 
0.805401 -0.0815749 0.0 
0.229717 -0.00299349 0.0 
0.755567 0.0145768 0.0 
0.140703 -0.0187898 0.0 
0.324704 0.0449081 0.0 
1.05021 0.102374 0.0 
0.951105 -0.288815 0.0 
0 0 0.0 
0.288727 0.0457712 0.0 
0.199023 0.00825941 0.0 
8.08427e-15 5.51415e-16 0.0 
0.619986 0.036308 0.0 
0.0057081 0.000578088 0.0 
0.0458715 -0.00976762 0.0 
0.0079136 -0.000295758 0.0 
0.411891 -0.00470866 0.0 
0.809918 0.127388 0.0 
0.0725139 -0.156569 0.0 
0.0463455 -0.00132195 0.0 
-2.61162e-189 1.07665e-190 0.0 
0.454255 -0.0471042 0.0 
0.00792741 0.000242233 0.0 
1.00941 -0.000766879 0.0 
-4.97847e-62 -8.12756e-64 0.0 
0 0 0.0 
0.780195 0.136653 0.0 
0.995284 -0.00102524 0.0 
2.05252e-05 -6.70582e-07 0.0 
0.740224 0.0318387 0.0 
0.189292 0.0393988 0.0 
0.799672 0.0736173 0.0 
1.00332 0 0.0 
0.837401 -0.0224853 0.0 
0.695936 -0.447861 0.0 
0.767707 0.0877758 0.0 
0 0 0.0 
0.0304766 -0.0826483 0.0 
0.998362 0.00301046 0.0 
0.0027904 -0.000347356 0.0 
0.405014 -0.00300483 0.0 
0.771461 -0.289636 0.0 
0.752861 0.219932 0.0 
1.00881 -0.000114154 0.0 
1.0067 -0.000438201 0.0 
1.07143 -0.0357386 0.0 
0.0955657 -0.00422762 0.0 
0.172012 0.0128004 0.0 
0.000259935 4.73104e-06 0.0 
0.131697 -0.00515786 0.0 
0.860194 -0.143176 0.0 
0.99884 0.000847416 0.0 
0.394013 -0.293213 0.0 
0.59165 0.0812774 0.0 
0.0429745 -0.0167117 0.0 
0.0104344 -0.00753545 0.0 
0.626213 0.159021 0.0 
0.325238 -0.0212277 0.0 
1.00301 0.00109745 0.0 
0.0998498 -0.014996 0.0 
1.00617 0.000682802 0.0 
1.01065 -0.0041072 0.0 
0 0 0.0 
0.229227 0.0173518 0.0 
5.38247e-05 4.57844e-06 0.0 
0 0 0.0 
0.862005 0.258577 0.0 
0 0 0.0 
0 0 0.0 
0.161706 -0.00990865 0.0 
-1.69642e-173 -3.21101e-175 0.0 
0.918108 0.23905 0.0 
1.00559 -0.00838034 0.0 
0 0 0.0 
0.037565 -0.00378605 0.0 
0.892346 -0.30017 0.0 
0.0225626 0.00442391 0.0 
0.96623 0.305663 0.0 
0.00634842 0.00059295 0.0 
0.997254 0.000971584 0.0 
1.00195 0.00238986 0.0 
0 0 0.0 
0.0114778 0.00129933 0.0 
0.00777743 0.00086511 0.0 
1.06344 0.222935 0.0 
0 0 0.0 
6.90839e-06 -5.72212e-07 0.0 
0.403426 -0.0288318 0.0 
0 0 0.0 
0.993288 0.0117495 0.0 
1.00224 0 0.0 
1.06022 0.219819 0.0 
1.00047 0.00517845 0.0 
1.01885 -0.301781 0.0 
0.314017 -0.0136643 0.0 
0.94093 -0.100875 0.0 
1.0049 0.000374712 0.0 
0.35873 -0.00383493 0.0 
0.278735 -0.0311031 0.0 
1.01238 -0.29451 0.0 
0.999509 -0.000516212 0.0 
0.324613 0.16816 0.0 
1.00637 -0.0114013 0.0 
0.316765 0.0753544 0.0 
0.997556 0.00346415 0.0 
0.0733043 -0.000256502 0.0 
1.02135 0.143288 0.0 
0.999515 -0.000232618 0.0 
1.03478 -0.0536397 0.0 
0.0912996 -0.0103314 0.0 
0.0492869 -0.00775059 0.0 
0.278648 0.0240707 0.0 
0 0 0.0 
9.87039e-07 -2.63154e-07 0.0 
1.05647 0.0947699 0.0 
0.00578511 -0.00045885 0.0 
1.00032 -0.00172212 0.0 
1.00898 0.256002 0.0 
0.726323 -0.0656466 0.0 
1.00816 0 0.0 
1.07242 -0.0109615 0.0 
1.01115 0.0114673 0.0 
1.00776 -0.000509757 0.0 
0.0256134 0.000167393 0.0 
0.174076 -0.00658471 0.0 
0.00135866 -0.000258688 0.0 
0.608457 -0.463376 0.0 
0.786695 0.0267941 0.0 
0.958661 -0.127224 0.0 
0.727342 0.191617 0.0 
0.991573 0.294173 0.0 
0.678566 0.199655 0.0 
1.01406 0.00382402 0.0 
1.00829 0.0010848 0.0 
1.00681 -3.77948e-14 0.0 
0.806064 0.19799 0.0 
1.02222 0.0124406 0.0 
1.00152 0.0131549 0.0 
0 0 0.0 
1.00842 -0.000917137 0.0 
1.00432 0 0.0 
1.03669 -0.27293 0.0 
1.00832 7.89561e-05 0.0 
0.957431 0.0287266 0.0 
0.933082 0.0458599 0.0 
0.0048271 -0.000357389 0.0 
0.0361014 -0.015384 0.0 
0.999701 -0.000294768 0.0 
0.566212 0.2884 0.0 
0.445774 -0.0101022 0.0 
1.00152 0.00083936 0.0 
7.92452e-05 2.25658e-06 0.0 
0.085111 -0.00881512 0.0 
1.00737 -0.00130192 0.0 
1.1532e-06 2.72348e-08 0.0 
0.223239 0.0384876 0.0 
1.0841 -0.0355088 0.0 
0.396051 0.049972 0.0 
1.00848 -0.00292011 0.0 
0.585442 -0.0712724 0.0 
0.129191 -1.74239e-05 0.0 
0.0385424 -0.00162842 0.0 
1.01268 0.000490183 0.0 
0.646904 0.181342 0.0 
0 0 0.0 
0.0330583 -0.0117682 0.0 
0.172784 0.0513428 0.0 
0.00363589 0.000126649 0.0 
0 0 0.0 
1.00887 -0.000230926 0.0 
1.00488 0.00279792 0.0 
3.06888e-100 -6.60504e-102 0.0 
1.00197 0 0.0 
1.09296 -0.10034 0.0 
0.942318 -0.360256 0.0 
1 -3.10722e-05 0.0 
0.914174 0.0774229 0.0 
1.00918 -0.00437698 0.0 
0.0484543 -0.00352035 0.0 
0 0 0.0 
0 0 0.0 
0.36471 0.00623317 0.0 
8.10818e-283 -5.99689e-284 0.0 
0.870508 0.27004 0.0 
1.00879 -0.00313141 0.0 
-1.5707e-47 -1.9907e-48 0.0 
0.27929 -0.0293048 0.0 
0.651293 0.277107 0.0 
0.0196079 -0.000874574 0.0 
1.00156 0.00118372 0.0 
0.92044 -0.304894 0.0 
1.00003 0.00051523 0.0 
0.589485 0.228264 0.0 
0.808638 -0.215161 0.0 
0.210473 -4.53878e-05 0.0 
0.951756 0.28437 0.0 
1.0004 -0.000864724 0.0 
0.0084611 0.000318242 0.0 
0.818989 -0.244576 0.0 
0.719016 -0.157548 0.0 
0.161304 0.168534 0.0 
0 0 0.0 
0 0 0.0 
0.109613 -0.0122301 0.0 
0.997814 -0.000791558 0.0 
0.0331009 -0.0150695 0.0 
1.01694 -0.11117 0.0 
1 0.000249168 0.0 
0.801158 -0.351796 0.0 
0.117872 -0.0215587 0.0 
0.839168 0.015692 0.0 
0 0 0.0 
0.646353 -0.0285788 0.0 
0 0 0.0 
1.12218 0.117093 0.0 
0.0415332 0.0670109 0.0 
0.902686 -0.0746194 0.0 
0.645967 -0.0086665 0.0 
0.320568 -0.00917891 0.0 
1.00454 0.000607114 0.0 
0.966698 -0.167806 0.0 
1.0062 0.152799 0.0 
3.7025e-78 5.40377e-79 0.0 
0.270364 -0.0405595 0.0 
0.743456 -0.430199 0.0 
-1.14202e-22 4.49084e-23 0.0 
0.242419 -0.00794439 0.0 
0.456106 -0.344734 0.0 
0 0 0.0 
0.977207 0.293799 0.0 
1.00787 0.000249613 0.0 
0.9539 0.0926136 0.0 
1.0005 0.000587195 0.0 
0.00833629 0.00019108 0.0 
0.682365 -0.107176 0.0 
1.00789 0.0017106 0.0 
1.00955 0.00202908 0.0 
0 0 0.0 
-1.85228e-110 -7.88813e-112 0.0 
1.0082 0.000155667 0.0 
1.00838 0.000938342 0.0 
1.00997 0.000624418 0.0 
1.00529 -0.00210362 0.0 
0 0 0.0 
0.44614 -0.0381427 0.0 
0.968753 -0.342328 0.0 
-8.03333e-16 -1.02821e-16 0.0 
0.85606 -0.118428 0.0 
0.0321255 -0.00119742 0.0 
0.873298 -0.0452504 0.0 
0.635015 -0.135702 0.0 
1.0013 0.00469711 0.0 
0.00419553 0.000185423 0.0 
0.849572 0.332431 0.0 
0.256479 -0.0459799 0.0 
0.0305809 -0.0319133 0.0 
0 0 0.0 
1.00735 0.00423741 0.0 
1.00851 -0.00564454 0.0 