<VTKFile type="UnstructuredGrid" version="0.1" byte_order="LittleEndian">
  <UnstructuredGrid>
    <Piece NumberOfPoints="13341" NumberOfCells="26521">
      <Points>
        <DataArray type = "Float64" NumberOfComponents="3" format="ascii">
0 0 0.0 
14 0 0.0 
14 8 0.0 
0 8 0.0 
4.16782 4.09801 0.0 
4.49804 4.07247 0.0 
4.31929 4.09319 0.0 
4.31638 4.10356 0.0 
4.39819 4.06076 0.0 
5.23251 4.2117 0.0 
4.00794 4.01927 0.0 
4.70709 3.98178 0.0 
4.33592 4.0755 0.0 
4.20715 3.97737 0.0 
4.08897 4.02831 0.0 
4.5309 4.06878 0.0 
4.04003 3.97377 0.0 
3.96554 4.00011 0.0 
4.90431 3.98042 0.0 
4.15989 3.95427 0.0 
10.7938 1.15904 0.0 
5.20643 4.02556 0.0 
4.09201 3.95624 0.0 
5.35008 4.62255 0.0 
4.01323 3.99894 0.0 
5.06578 4.04346 0.0 
4.25007 4.10489 0.0 
3.02164 2.14371 0.0 
4.10458 3.96548 0.0 
3.9877 3.99506 0.0 
5.05801 3.99985 0.0 
4.00962 4.08349 0.0 
4.00225 4.00832 0.0 
4.17826 3.97572 0.0 
4.3826 3.93601 0.0 
4.54071 4.07792 0.0 
4.34985 4.07572 0.0 
4.57151 3.88395 0.0 
4.2556 4.06969 0.0 
4.71463 4.0451 0.0 
4.66467 3.98262 0.0 
4.34508 4.08154 0.0 
4.17759 3.97818 0.0 
4.3192 4.05771 0.0 
4.09533 4.03459 0.0 
4.00922 3.99881 0.0 
4.03572 4.02624 0.0 
4.4538 4.05514 0.0 
4.04425 3.97744 0.0 
4.36731 4.05544 0.0 
4.12942 4.05469 0.0 
4.93922 4.01425 0.0 
5.16321 3.91641 0.0 
3.93682 3.99751 0.0 
4.11094 4.03801 0.0 
4.23608 3.93283 0.0 
5.12801 3.98494 0.0 
5.70055 3.85423 0.0 
5.60404 4.03856 0.0 
4.13058 3.96651 0.0 
4.85184 4.02855 0.0 
4.15135 3.9478 0.0 
4.43079 4.04364 0.0 
4.8913 3.99291 0.0 
4.04483 3.94951 0.0 
4.39995 4.07071 0.0 
4.26473 4.0925 0.0 
4.0699 4.05823 0.0 
4.39911 4.08554 0.0 
4.10529 4.06498 0.0 
4.31296 4.05832 0.0 
4.42013 4.03719 0.0 
3.85267 4.10531 0.0 
4.93247 4.25175 0.0 
4.11905 4.05291 0.0 
4.21772 4.0805 0.0 
4.96564 4.02151 0.0 
4.56694 4.04774 0.0 
4.01647 3.99236 0.0 
4.47961 4.06651 0.0 
4.44144 4.05314 0.0 
3.9464 4.01382 0.0 
6.00431 3.29133 0.0 
4.08502 3.97256 0.0 
4.11961 3.95973 0.0 
0 6.15459 0.0 
4.0192 3.99331 0.0 
4.17361 4.03498 0.0 
4.31763 3.96714 0.0 
4.39413 4.09439 0.0 
4.97586 4.02633 0.0 
4.52429 4.08252 0.0 
5.00785 4.00312 0.0 
10.8833 7.73481 0.0 
4.98371 4.00482 0.0 
3.99177 4.03012 0.0 
14 6.11123 0.0 
4.17782 3.95315 0.0 
3.99379 4.00703 0.0 
3.96293 3.99513 0.0 
4.97836 3.99666 0.0 
4.99074 4.00324 0.0 
4.10445 4.07203 0.0 
4.19351 4.07858 0.0 
4.28762 3.95822 0.0 
4.96536 4.01766 0.0 
3.88293 4.06948 0.0 
4.87416 4.02915 0.0 
4.78769 3.98918 0.0 
4.23788 4.086 0.0 
4.24845 4.07301 0.0 
4.15393 3.9656 0.0 
4.80296 3.98472 0.0 
4.70375 4.05086 0.0 
5.0369 4.01498 0.0 
4.47667 4.10121 0.0 
4.18616 4.03623 0.0 
4.52647 3.97575 0.0 
4.27964 3.95178 0.0 
4.96248 4.01982 0.0 
14 5.21618 0.0 
4.40535 4.09238 0.0 
4.21111 4.06262 0.0 
4.81445 3.98962 0.0 
4.02932 3.98153 0.0 
4.28749 4.07809 0.0 
3.94943 3.96456 0.0 
4.00193 3.996 0.0 
4.09422 4.04418 0.0 
4.08775 3.93171 0.0 
4.39707 4.07713 0.0 
4.21452 4.09342 0.0 
4.0806 4.08505 0.0 
4.76444 3.98711 0.0 
5.31129 4.21443 0.0 
4.35276 4.07467 0.0 
4.44625 4.06625 0.0 
7.56185 0.932436 0.0 
4.61371 4.18066 0.0 
7.69989 0 0.0 
4.95044 3.99745 0.0 
4.15284 4.083 0.0 
4.81084 4.0108 0.0 
4.83299 3.98256 0.0 
3.05817 4.59047 0.0 
4.91804 3.99501 0.0 
5.24118 4.52738 0.0 
4.34604 4.08406 0.0 
4.37798 8 0.0 
4.12623 4.0709 0.0 
4.01965 4.03223 0.0 
4.08368 4.05662 0.0 
4.08112 3.97068 0.0 
4.13478 4.05158 0.0 
4.33046 3.95323 0.0 
4.27852 0 0.0 
4.09577 4.05589 0.0 
4.29262 4.07791 0.0 
4.0152 4.00142 0.0 
5.03289 4.01205 0.0 
9.42596 7.54773 0.0 
4.85881 3.9611 0.0 
4.23118 3.96222 0.0 
4.89546 3.86663 0.0 
5.06384 4.03439 0.0 
4.70266 8 0.0 
4.40424 3.95581 0.0 
4.04592 3.97223 0.0 
4.20971 4.06895 0.0 
4.88789 4.00757 0.0 
4.20746 4.07011 0.0 
4.13425 4.07811 0.0 
4.07543 3.96017 0.0 
4.14867 4.04155 0.0 
5.0666 3.75765 0.0 
5.11295 3.90338 0.0 
4.1741 4.07586 0.0 
4.1492 4.06587 0.0 
4.19763 3.93666 0.0 
4.89032 4.03847 0.0 
4.85231 3.96578 0.0 
4.70324 4.03593 0.0 
4.39108 4.06805 0.0 
4.85984 4.03097 0.0 
4.55668 4.05035 0.0 
3.91267 2.38613 0.0 
4.84484 4.02979 0.0 
4.48934 4.06478 0.0 
4.02873 4.0411 0.0 
4.37093 4.06777 0.0 
4.4844 4.06498 0.0 
4.29787 4.08601 0.0 
4.20488 4.08602 0.0 
4.08836 4.05658 0.0 
5.12398 3.44603 0.0 
5.0485 4.04329 0.0 
4.30754 3.9604 0.0 
4.12124 3.98374 0.0 
4.21971 3.98354 0.0 
4.83151 3.99056 0.0 
4.08226 3.93581 0.0 
4.17912 4.05461 0.0 
4.93989 4.01229 0.0 
4.23007 3.96481 0.0 
4.36411 3.9567 0.0 
4.8891 4.02203 0.0 
4.41416 4.07247 0.0 
4.60865 3.9609 0.0 
4.98139 3.99812 0.0 
4.1829 4.06659 0.0 
4.12635 4.07409 0.0 
0 1.4212 0.0 
4.57802 3.96133 0.0 
4.8762 4.04179 0.0 
4.18679 4.08465 0.0 
4.42661 3.97242 0.0 
5.10947 4.01128 0.0 
4.61413 3.97897 0.0 
4.00381 4.03411 0.0 
4.61466 3.97185 0.0 
4.35831 3.96897 0.0 
4.25777 4.07923 0.0 
4.83496 3.99038 0.0 
3.95965 3.9291 0.0 
4.43082 3.99724 0.0 
4.0644 3.93891 0.0 
4.33589 3.95158 0.0 
4.32429 4.08681 0.0 
4.16503 4.11076 0.0 
4.1119 3.93738 0.0 
4.6236 3.97981 0.0 
3.99883 4.00817 0.0 
4.19206 3.91938 0.0 
4.39877 3.96844 0.0 
3.96023 4.01528 0.0 
4.00955 3.98517 0.0 
4.09641 3.95124 0.0 
4.12454 3.92729 0.0 
4.2593 4.09637 0.0 
4.08491 4.0641 0.0 
3.96293 4.03138 0.0 
4.30978 4.04951 0.0 
4.06298 3.99231 0.0 
4.21022 3.93613 0.0 
4.19366 3.95089 0.0 
4.02726 4.02629 0.0 
4.21125 3.95113 0.0 
3.99252 4.00665 0.0 
4.04836 4.00644 0.0 
4.17636 4.06982 0.0 
4.01378 4.004 0.0 
4.80533 3.95533 0.0 
3.94066 3.96869 0.0 
4.14911 3.96645 0.0 
4.10252 3.95063 0.0 
3.95819 3.97698 0.0 
4.08008 3.9656 0.0 
4.808 4.01473 0.0 
6.15976 4.00703 0.0 
4.55958 4.05269 0.0 
4.54783 4.09596 0.0 
4.15636 4.04974 0.0 
3.95778 3.98461 0.0 
4.96863 4.01905 0.0 
3.9419 3.97853 0.0 
4.6105 3.9635 0.0 
4.19018 4.05306 0.0 
4.99471 4.03862 0.0 
4.10081 3.94382 0.0 
4.00418 3.99483 0.0 
4.69463 4.07217 0.0 
4.09782 3.95912 0.0 
4.38205 4.11296 0.0 
4.16733 4.07556 0.0 
4.62378 4.05406 0.0 
4.42838 3.96736 0.0 
4.05247 4.0364 0.0 
10.6684 7.55729 0.0 
4.24552 4.07113 0.0 
3.9771 4.03148 0.0 
4.82186 4.01422 0.0 
4.12468 3.96891 0.0 
5.06458 4.0924 0.0 
4.15561 4.10177 0.0 
4.18309 4.12442 0.0 
3.96476 4.03852 0.0 
4.79279 3.9889 0.0 
4.18744 4.07562 0.0 
4.56221 4.05926 0.0 
4.15327 4.03971 0.0 
3.96822 4.02719 0.0 
3.97233 4.04194 0.0 
3.98573 3.91699 0.0 
4.26548 4.05787 0.0 
4.43203 4.06856 0.0 
3.99355 3.9371 0.0 
4.01757 4.01026 0.0 
4.20876 3.92492 0.0 
4.05286 3.93495 0.0 
3.92251 4.00785 0.0 
4.32616 4.09061 0.0 
4.22899 4.0812 0.0 
4.80753 3.98265 0.0 
4.8824 3.99173 0.0 
4.30498 3.95249 0.0 
4.3849 4.08353 0.0 
4.91805 4.00414 0.0 
3.97661 4.05846 0.0 
4.17387 3.99146 0.0 
4.00418 4.00381 0.0 
3.94564 3.99975 0.0 
4.39174 4.08409 0.0 
4.00326 3.99438 0.0 
4.30841 4.04195 0.0 
4.72385 4.04461 0.0 
4.51329 4.03771 0.0 
4.98371 4.01321 0.0 
4.35255 4.06175 0.0 
4.47137 4.06668 0.0 
4.52064 4.08001 0.0 
4.94851 4.01151 0.0 
4.80468 3.97368 0.0 
4.69618 4.04767 0.0 
3.877 4.36417 0.0 
4.04324 3.98528 0.0 
4.01036 4.01517 0.0 
11.7013 4.10211 0.0 
3.99951 3.99563 0.0 
3.87322 3.99102 0.0 
4.39502 3.97116 0.0 
4.24473 1.81929 0.0 
4.1384 3.95607 0.0 
4.88167 4.0072 0.0 
5.00368 4.02229 0.0 
4.5533 4.04791 0.0 
5.67864 4.56478 0.0 
4.36894 4.08372 0.0 
4.96428 4.00073 0.0 
4.97288 4.14732 0.0 
4.05408 3.9411 0.0 
4.06898 3.98443 0.0 
3.91416 3.85383 0.0 
4.02341 4.03456 0.0 
4.73992 5.4211 0.0 
4.52724 7.41561 0.0 
5.05919 4.01855 0.0 
4.22973 3.95422 0.0 
4.55513 4.04031 0.0 
4.76252 4.05839 0.0 
4.25656 3.96633 0.0 
4.585 3.95993 0.0 
4.4094 4.07215 0.0 
4.14581 4.04395 0.0 
4.1505 4.05937 0.0 
4.23986 3.99243 0.0 
4.39838 3.96198 0.0 
4.43745 4.07316 0.0 
3.94576 4.12556 0.0 
5.0873 4.02567 0.0 
4.05096 4.01373 0.0 
4.73905 4.04239 0.0 
1.24078 0.550265 0.0 
4.23154 4.07931 0.0 
4.5787 4.08069 0.0 
5.06721 3.97763 0.0 
5.08424 3.97711 0.0 
2.38032 0.204862 0.0 
4.69463 3.82752 0.0 
9.1005 7.43296 0.0 
3.88655 3.87755 0.0 
5.26955 3.76867 0.0 
4.95177 4.0104 0.0 
5.04727 3.95706 0.0 
4.20032 4.06719 0.0 
3.99865 3.97733 0.0 
4.95713 4.01042 0.0 
4.42128 4.07389 0.0 
4.01517 4.03055 0.0 
4.26022 3.94165 0.0 
4.04734 4.04874 0.0 
4.36563 4.07339 0.0 
4.41085 3.95745 0.0 
4.02246 4.02836 0.0 
10.8355 3.51217 0.0 
3.99908 3.98836 0.0 
4.84879 4.038 0.0 
4.12151 3.94609 0.0 
13.3549 8 0.0 
4.07307 3.94777 0.0 
4.00636 4.00088 0.0 
4.22326 4.06631 0.0 
5.08336 3.96689 0.0 
4.95705 4.00802 0.0 
4.65217 4.06074 0.0 
12.0984 8 0.0 
4.97222 4.02124 0.0 
4.13366 3.9572 0.0 
4.88044 0 0.0 
4.25641 4.04704 0.0 
4.70161 3.97766 0.0 
4.35005 4.09252 0.0 
4.2163 3.94824 0.0 
3.92866 4.03401 0.0 
4.22957 3.95099 0.0 
5.45339 4.73552 0.0 
4.12589 3.95744 0.0 
4.62991 4.05786 0.0 
4.99093 4.01037 0.0 
5.17688 4.45354 0.0 
4.81655 3.98846 0.0 
3.99342 4.00186 0.0 
4.18964 3.9825 0.0 
4.4032 4.05392 0.0 
3.99922 3.99464 0.0 
4.02651 3.98658 0.0 
4.89167 4.02794 0.0 
4.98936 3.997 0.0 
5.42038 5.15724 0.0 
5.12351 4.04488 0.0 
4.12408 3.94161 0.0 
4.44391 4.08786 0.0 
4.29176 4.03808 0.0 
4.26004 3.94534 0.0 
4.06234 3.9498 0.0 
5.04726 4.00417 0.0 
4.64851 3.98273 0.0 
4.25099 3.95498 0.0 
4.38914 4.13623 0.0 
4.53353 3.97541 0.0 
4.84566 3.99096 0.0 
4.06336 4.08174 0.0 
4.66775 4.07119 0.0 
4.70135 4.04658 0.0 
4.0339 4.05256 0.0 
5.18874 4.1492 0.0 
4.71963 3.98227 0.0 
4.60101 3.96809 0.0 
4.12681 4.04136 0.0 
4.52026 3.95921 0.0 
5.18669 4.08398 0.0 
4.45614 3.97191 0.0 
4.49648 4.1021 0.0 
4.21355 3.98022 0.0 
4.01744 4.0121 0.0 
4.10934 4.05205 0.0 
4.28891 4.06302 0.0 
4.36279 4.07512 0.0 
4.51983 4.11882 0.0 
4.255 4.06007 0.0 
4.33894 4.08186 0.0 
4.44101 3.92356 0.0 
5.12338 4.05963 0.0 
4.30661 4.08755 0.0 
4.19465 3.9662 0.0 
4.29981 3.98456 0.0 
4.36971 4.07222 0.0 
4.17983 4.0788 0.0 
4.09006 4.05475 0.0 
4.02771 4.06277 0.0 
5.068 3.95684 0.0 
4.93551 6.22141 0.0 
4.2489 4.09629 0.0 
4.81152 3.98925 0.0 
4.71344 3.98917 0.0 
4.78296 4.03517 0.0 
4.96109 4.00742 0.0 
4.40816 4.07572 0.0 
4.32398 4.05563 0.0 
5.08198 4.04957 0.0 
5.15068 4.1738 0.0 
5.02947 4.00625 0.0 
4.71616 4.0795 0.0 
4.48678 4.05273 0.0 
4.485 4.07337 0.0 
[...]
<PointData>
  <DataArray type = "Float64" Name="Vitesse" NumberOfComponents="3" format="ascii">
1 0 0.0 
1.00011 0 0.0 
0.999933 0 0.0 
1 0 0.0 
1.03434 0.172658 0.0 
0.136341 -0.00685842 0.0 
0.604025 0.0284588 0.0 
0.816887 0.0469553 0.0 
-1.64804e-145 2.63712e-147 0.0 
0.947102 -0.0181335 0.0 
0.321183 0.244984 0.0 
0.0340321 0.00189355 0.0 
0.160822 0.0028116 0.0 
-4.70935e-146 -2.45814e-148 0.0 
5.19578e-254 1.40051e-255 0.0 
0.103399 -0.00591548 0.0 
0.30088 -0.0730723 0.0 
0.646549 -0.0607538 0.0 
0.141685 0.00756995 0.0 
0.404175 -0.0191232 0.0 
1.00036 0.000287647 0.0 
0.359463 -0.0298911 0.0 
0.615985 -0.0803643 0.0 
1.05352 -0.00631955 0.0 
1.18963e-250 -6.84057e-251 0.0 
0.318308 -0.0501114 0.0 
0.957235 0.0972541 0.0 
1.00244 -0.00589028 0.0 
0.187468 -0.0154052 0.0 
0.448266 -0.222076 0.0 
0.133025 0.00866089 0.0 
0.880713 0.241755 0.0 
0.035032 0.0334993 0.0 
-2.83005e-156 7.26246e-158 0.0 
0.576255 0.00115549 0.0 
0.243795 -0.0122896 0.0 
0.158757 -0.00143603 0.0 
1.021 -0.00180949 0.0 
0.0979971 0.00640603 0.0 
0.0108906 -0.00101185 0.0 
0.00658725 0.000311157 0.0 
0.299 0.003735 0.0 
1.06454e-244 6.65113e-246 0.0 
3.83592e-248 -4.76314e-250 0.0 
1.97546e-251 5.32481e-253 0.0 
1.38233e-247 -1.49605e-247 0.0 
1.04424e-249 4.01715e-250 0.0 
1.30993e-204 -2.49669e-206 0.0 
2.09226e-06 -7.40143e-07 0.0 
3.73527e-242 -2.7233e-243 0.0 
0.0686802 0.0144316 0.0 
0.00939547 -0.00151456 0.0 
0.712501 0.0348202 0.0 
0.763761 -0.0409063 0.0 
1.94932e-255 2.02617e-256 0.0 
0.766838 -0.0299541 0.0 
0.273263 0.0184858 0.0 
0.851401 0.0418395 0.0 
0.608111 -0.0333889 0.0 
0.0773083 4.87663e-05 0.0 
0.0152897 -0.00175059 0.0 
0.616551 -0.0435572 0.0 
-1.6841e-158 -2.02687e-160 0.0 
0.0103494 -0.000293643 0.0 
1.0273 -0.275264 0.0 
0.0557182 -0.000307243 0.0 
0.70151 0.05742 0.0 
0.79888 0.243507 0.0 
0.356676 -0.000140272 0.0 
0.701824 0.166124 0.0 
4.92685e-250 -5.61002e-252 0.0 
-2.77229e-161 -3.33655e-163 0.0 
0.902747 0.0501943 0.0 
1.06311 -0.0330602 0.0 
0.0662814 0.00986703 0.0 
0.536638 0.0562535 0.0 
0.065139 -0.0106827 0.0 
1.50186e-120 -9.06158e-122 0.0 
8.2763e-250 -4.759e-250 0.0 
0.0321425 -0.000586361 0.0 
-3.95982e-156 3.93744e-158 0.0 
0.732174 0.00621022 0.0 
1.00374 0.0206949 0.0 
3.0621e-14 -2.32575e-15 0.0 
0.347549 -0.0294829 0.0 
1 0 0.0 
6.87039e-250 -3.95058e-250 0.0 
-1.34801e-197 -1.17612e-198 0.0 
0.0388367 0.000774646 0.0 
0.540945 0.00544613 0.0 
0.105331 -0.0179371 0.0 
0.308373 -0.0130664 0.0 
0.0328682 -0.00279995 0.0 
1.00005 -3.4752e-05 0.0 
0.00294046 -0.000533578 0.0 
0.619601 0.257852 0.0 
0.999935 -5.5235e-06 0.0 
0.398705 -0.0161792 0.0 
0.253019 0.0681029 0.0 
0.671646 -0.0843475 0.0 
0.016506 0.00157669 0.0 
0.00254496 -0.000646946 0.0 
0.88412 0.213349 0.0 
0.578385 0.0746521 0.0 
0.197616 0.00140888 0.0 
0.0436919 -0.00719386 0.0 
0.869424 0.0476953 0.0 
0.0341585 -0.00474702 0.0 
0.000416603 6.27876e-05 0.0 
0.61713 0.058047 0.0 
0.215787 0.0173263 0.0 
0.0739727 -0.00331979 0.0 
0.0475605 0.00207701 0.0 
0.0485002 -0.00479801 0.0 
0.107182 -0.0152456 0.0 
0.622907 -0.00720769 0.0 
4.32111e-252 4.2415e-253 0.0 
0.0109611 0.000402869 0.0 
0.329661 -0.000548842 0.0 
0.0527358 -0.00857208 0.0 
0.999945 4.47938e-06 0.0 
0.493344 0.00192843 0.0 
1.22847e-06 5.65849e-08 0.0 
0.00724864 0.00103525 0.0 
1.02072e-07 -4.01941e-08 0.0 
0.280934 0.0113398 0.0 
0.795227 -0.132839 0.0 
-3.4373e-122 5.45551e-122 0.0 
4.27299e-233 9.27657e-234 0.0 
1.0747 -0.185799 0.0 
0.184056 -0.000938183 0.0 
0.860079 0.104561 0.0 
1.01976 0.271728 0.0 
0.00586014 0.000519235 0.0 
0.920098 -0.0117574 0.0 
0.133759 -0.000317046 0.0 
0.000500988 -3.11498e-05 0.0 
1.00281 0.00144725 0.0 
1.11262 -0.0127037 0.0 
1.00283 0 0.0 
-2.90001e-12 -2.41178e-13 0.0 
0.875249 0.154843 0.0 
-4.59345e-193 9.05929e-194 0.0 
0.0832517 0.00421055 0.0 
0.990511 0.0104002 0.0 
0.00078367 -6.80667e-06 0.0 
1.05485 0.00219511 0.0 
0.357272 0.00612745 0.0 
1.00654 0 0.0 
0.726032 0.146941 0.0 
0.595383 0.309683 0.0 
0.619488 0.165105 0.0 
0.057466 -0.00655596 0.0 
3.06349e-13 5.23841e-14 0.0 
0.287267 0.00304035 0.0 
1.00578 0 0.0 
0.453297 0.110626 0.0 
0.266339 0.0113178 0.0 
4.83463e-251 -2.78005e-251 0.0 
0.0921031 -0.0111134 0.0 
1.00042 -0.00021444 0.0 
0.314724 0.0158706 0.0 
0.122986 0.00137151 0.0 
1.00662 0.0182254 0.0 
0.250966 -0.039949 0.0 
1.0067 0 0.0 
0.24452 0.00501484 0.0 
0.309326 -0.0630448 0.0 
0.198498 0.0180692 0.0 
4.29118e-86 -4.15976e-87 0.0 
0.247112 0.0251628 0.0 
0.858782 0.170221 0.0 
0.586204 -0.0958603 0.0 
-2.8572e-183 -2.49286e-184 0.0 
1.04996 -0.00584144 0.0 
0.785366 0.0368173 0.0 
0.589092 0.0835981 0.0 
0.393953 0.0647237 0.0 
0.762639 -0.0411385 0.0 
0.107699 -0.0145552 0.0 
0.263415 0.0133607 0.0 
6.14537e-67 -2.07403e-69 0.0 
6.7894e-06 5.73562e-07 0.0 
0.0337048 -0.00449494 0.0 
1.11241e-121 -1.63756e-123 0.0 
1.00841 -0.00859349 0.0 
0.0162607 -0.00244232 0.0 
0.012435 6.75017e-05 0.0 
0.73671 0.330482 0.0 
2.02727e-13 6.49371e-15 0.0 
0.012428 -0.00135688 0.0 
0.470317 0.0246644 0.0 
0.732679 0.0917576 0.0 
0.565959 0.143678 0.0 
1.0482 0.00925957 0.0 
0.299746 -0.0491941 0.0 
0.155593 0.00227774 0.0 
1.90847e-244 -1.03824e-245 0.0 
6.31536e-131 7.61197e-132 0.0 
0.00624585 0.000594273 0.0 
1.06447 -0.192592 0.0 
8.05683e-237 6.90659e-238 0.0 
0.00288793 -0.000384694 0.0 
0.0679548 0.0016333 0.0 
0.225396 0.00418432 0.0 
0.00984143 -0.00126139 0.0 
0.0938494 -0.00196389 0.0 
0.222538 0.00840976 0.0 
0.00088533 3.93137e-05 0.0 
0.226931 0.0256081 0.0 
0.809517 0.166924 0.0 
1 0 0.0 
0.207675 0.00735433 0.0 
0.119741 -0.015635 0.0 
0.769281 0.107776 0.0 
0.00629682 0.000345247 0.0 
0.202074 -0.0118 0.0 
0.0185985 0.0019464 0.0 
0.677144 0.351622 0.0 
0.0967754 0.00434641 0.0 
0.0259595 0.000815693 0.0 
0.376231 0.0280025 0.0 
0.00773312 8.26849e-05 0.0 
0.874901 -0.164223 0.0 
1.2891e-106 1.1266e-107 0.0 
1.06264 -0.227858 0.0 
0.316689 0.00315475 0.0 
0.448545 0.0167586 0.0 
1.09391 0.184416 0.0 
0.987556 -0.133193 0.0 
0.013791 0.000453591 0.0 
0.135487 0.142312 0.0 
1.02306 -0.0769758 0.0 
0.0504623 0.00125874 0.0 
0.678452 0.0230175 0.0 
0.330978 -0.205563 0.0 
0.755294 -0.101862 0.0 
1.05758 -0.133857 0.0 
0.796502 0.0704582 0.0 
0.830062 0.226313 0.0 
0.706815 0.0941249 0.0 
2.24633e-253 2.51143e-254 0.0 
-9.37833e-264 1.20362e-264 0.0 
0.748472 -0.0359496 0.0 
0.431549 -0.0153859 0.0 
0.0671598 0.0357219 0.0 
0.399553 -0.0095362 0.0 
0.283287 0.0441316 0.0 
1.87769e-262 -6.75879e-263 0.0 
0.377259 0.048292 0.0 
2.10825e-253 -1.20967e-253 0.0 
0.351636 0.016108 0.0 
0.798252 -0.107864 0.0 
0.0538212 -0.00311439 0.0 
0.738734 -0.0929315 0.0 
0.743599 -0.136898 0.0 
0.311367 -0.041892 0.0 
1.36451e-99 -1.66919e-100 0.0 
0.860854 0.00915799 0.0 
-1.70755e-35 5.78128e-37 0.0 
0.527986 -0.0183251 0.0 
-4.97304e-143 -4.38594e-144 0.0 
0.720774 -0.114372 0.0 
0.0539944 -0.00902684 0.0 
0.775955 -0.0928198 0.0 
0.1919 0.00752852 0.0 
1.38065e-250 2.43487e-251 0.0 
0.213562 -0.0366273 0.0 
0.917688 -0.13134 0.0 
-4.84184e-148 3.17277e-148 0.0 
0.260876 -0.0205136 0.0 
0.469812 -0.0512551 0.0 
0.876808 0.0279172 0.0 
0.615824 0.0918678 0.0 
0.0065396 -0.000350188 0.0 
0.0771141 0.00216249 0.0 
0.0952977 0.0316066 0.0 
1.00007 -7.18045e-05 0.0 
0.165819 0.0138409 0.0 
0.661791 0.153379 0.0 
7.12957e-97 -8.72151e-98 0.0 
0.000291266 -1.3793e-05 0.0 
0.669244 -0.0791003 0.0 
1.07061 0.191455 0.0 
1.1085 0.167009 0.0 
0.724072 0.119448 0.0 
0.00108239 0.000111636 0.0 
0.514819 0.0675041 0.0 
0.00787285 -0.000536929 0.0 
-1.47257e-185 -1.28479e-186 0.0 
0.673685 0.0976012 0.0 
0.721618 0.154118 0.0 
0.920836 -0.195952 0.0 
1.55545e-93 1.07934e-94 0.0 
0.0304019 -0.000612457 0.0 
0.901674 -0.244278 0.0 
9.10742e-255 4.46458e-255 0.0 
0.939028 -0.0567951 0.0 
1.05698 -0.245572 0.0 
0.793086 -0.0124464 0.0 
0.535156 0.0213579 0.0 
0.515103 0.0486074 0.0 
0.0701393 0.00360946 0.0 
0.0191945 0.00132537 0.0 
0.306361 0.00120092 0.0 
0.319375 -3.44981e-05 0.0 
2.41464e-79 -4.82159e-80 0.0 
0.780381 0.182438 0.0 
2.72221e-206 6.02438e-208 0.0 
3.98382e-96 4.65421e-96 0.0 
0.736776 -0.0412432 0.0 
0.328665 8.25103e-05 0.0 
-9.06395e-152 5.9393e-152 0.0 
6.89113e-251 -5.02312e-252 0.0 
0.0151859 -0.00174313 0.0 
-7.11945e-146 -8.56981e-148 0.0 
0.0374228 -0.00743012 0.0 
-5.26663e-164 2.15348e-165 0.0 
0.0271169 -0.00268663 0.0 
0.266803 -0.0118464 0.0 
0.00508241 -0.000712179 0.0 
0.158451 0.00779564 0.0 
0.0157275 -0.00193515 0.0 
0.98341 0.0609099 0.0 
-3.48728e-166 6.03759e-167 0.0 
-9.46731e-34 -5.5262e-34 0.0 
0.999856 0.000123216 0.0 
0.144718 -0.24459 0.0 
0.861337 -0.0231009 0.0 
0.0100144 0.000503365 0.0 
1.00873 -0.00356985 0.0 
0.405794 -0.0266378 0.0 
8.11599e-87 -7.86758e-88 0.0 
0.105432 -0.0257214 0.0 
-5.39973e-138 -6.50113e-140 0.0 
1.08289 -0.0283505 0.0 
0.332862 0.00293721 0.0 
-2.27544e-26 -1.32713e-27 0.0 
0.959149 -0.0689688 0.0 
1.05593 -0.250387 0.0 
3.05038e-247 -6.01426e-248 0.0 
0.94089 -0.0963892 0.0 
0.614236 0.304666 0.0 
1.02012 0.00259449 0.0 
1.00691 0.000354364 0.0 
0.153612 -0.0190215 0.0 
0.305638 -0.00310157 0.0 
-7.3384e-138 4.03312e-139 0.0 
0.16502 -0.0163474 0.0 
0.0368523 -0.000287025 0.0 
0.227191 0.00803345 0.0 
0.0866032 -0.00207205 0.0 
-6.18327e-183 -5.39479e-184 0.0 
0.119638 0.0194555 0.0 
2.96228e-137 3.56999e-138 0.0 
0.146832 0.00366687 0.0 
0.116027 -0.00423095 0.0 
0.898405 0.122212 0.0 
0.22624 -0.0291988 0.0 
1.67685e-257 6.44654e-258 0.0 
0.0126683 -0.00136977 0.0 
1.00046 -0.000482493 0.0 
0.451593 0.040416 0.0 
0.303852 -0.0166204 0.0 
0.2688 0.0326377 0.0 
0.285314 0.0300126 0.0 
1.00227 -0.000406208 0.0 
1.08169 0.00110865 0.0 
1.00057 -0.000345913 0.0 
0.922795 -0.0820985 0.0 
1.01916 -0.013131 0.0 
0.00303253 -0.000472517 0.0 
0.434295 0.0431265 0.0 
0.171956 0.0184696 0.0 
0.728282 -0.432829 0.0 
0.00638503 -0.000864388 0.0 
0.123674 -0.00277548 0.0 
0.606024 0.336854 0.0 
0.557551 -0.0112877 0.0 
0.751782 0.274819 0.0 
0.10505 0.00136335 0.0 
0.219663 0.00495932 0.0 
0.360445 0.184514 0.0 
0.999794 0.000304566 0.0 
0.480632 -0.447956 0.0 
0.0685094 -0.00885177 0.0 
0.774599 -0.0837049 0.0 
0.999939 0 0.0 
0.96688 -0.186469 0.0 
9.14273e-251 -6.7761e-251 0.0 
0.0641101 -0.00151193 0.0 
0.365202 0.0366381 0.0 
2.85595e-05 -1.61161e-06 0.0 
0.10038 -0.00889551 0.0 
0.999969 0 0.0 
0.0697649 -0.0118204 0.0 
0.383316 -0.0253696 0.0 
1.00624 0 0.0 
1.34675e-257 1.08673e-258 0.0 
0.0721876 0.00413373 0.0 
0.545026 0.01461 0.0 
0.463347 -0.0122298 0.0 
0.793581 0.041809 0.0 
0.381426 -0.00615917 0.0 
1.04377 -0.0175128 0.0 
0.404154 -0.0312758 0.0 
0.0515267 -0.00492471 0.0 
0.0313788 -0.00777629 0.0 
1.05218 0.00540438 0.0 
0.0182098 0.00120672 0.0 
0.232433 -0.101713 0.0 
3.12243e-199 6.91008e-201 0.0 
-1.36003e-156 -1.38255e-158 0.0 
0.198857 -0.295618 0.0 
-9.9687e-147 2.85398e-147 0.0 
0.0407081 -0.00590322 0.0 
0.0201916 0.000991842 0.0 
1.01699 -0.0175567 0.0 
0.385579 -0.0507048 0.0 
0.871884 -0.0976237 0.0 
0.391522 -0.00634959 0.0 
4.29027e-257 4.83653e-258 0.0 
0.479667 -0.00769436 0.0 
0.979341 -0.21318 0.0 
0.1093 0.00270834 0.0 
1.64151e-06 2.15226e-07 0.0 
0.275873 -0.00192943 0.0 
1.08166 0.0429681 0.0 
0.0192164 0.0011852 0.0 
0.00855737 0.000768589 0.0 
0.992608 0.285909 0.0 
0.230724 -0.0176767 0.0 
0.0118085 -0.000563776 0.0 
0.86937 0.344815 0.0 
0.869418 -0.0508163 0.0 
0.0347962 0.00246856 0.0 
0.134141 0.00577725 0.0 
-2.98903e-196 -2.60788e-197 0.0 
0.218913 0.00649312 0.0 
0.640532 -0.0649409 0.0 
0.0270432 0.00135326 0.0 
0.631283 -0.0105839 0.0 
-3.38464e-110 -1.78649e-111 0.0 
5.03003e-251 2.48031e-251 0.0 
0.122933 0.0268396 0.0 
2.35539e-87 1.63442e-88 0.0 
0.143831 0.00227952 0.0 
0.858686 -0.00902564 0.0 
-7.85609e-128 -5.27945e-129 0.0 
0.312545 0.00623832 0.0 
0.736131 0.00115787 0.0 
0.482204 -0.062719 0.0 
0.493539 0.0243561 0.0 
0.0343129 -0.00188986 0.0 
1.25662e-230 6.91462e-232 0.0 
0.0790103 0.000328155 0.0 
0.647002 0.0910387 0.0 
0.470864 0.114981 0.0 
0.890084 0.3217 0.0 
0.441203 0.0422478 0.0 
1.01155 -0.000222465 0.0 
0.820931 0.0788864 0.0 
0.00789455 0.000814237 0.0 
-9.69928e-104 -1.08874e-104 0.0 
-4.59992e-23 4.97825e-24 0.0 
3.05044e-05 6.76271e-07 0.0 
0.156371 -0.00242409 0.0 
5.26956e-257 5.64634e-258 0.0 
0.378644 -0.0565772 0.0 
0.935411 -0.0446579 0.0 
0.0783389 -0.00164041 0.0 
0.362909 -0.0274158 0.0 
1.85568e-202 -4.20664e-204 0.0 
0.142991 -0.00626595 0.0 
0.676142 0.0512102 0.0 
0.327466 0.00689284 0.0 
0.995308 0.00526725 0.0 
-5.86321e-264 8.97048e-265 0.0 
0.998737 0.00638296 0.0 
0.200709 0.0131865 0.0 
0.703869 0.0690693 0.0 
4.97669e-56 4.31189e-56 0.0 
0.246405 -0.0334485 0.0 
0.311152 0.264781 0.0 
0.0219642 0.000746028 0.0 
0.142699 -0.0158544 0.0 
0.803274 -0.12045 0.0 
0.391086 0.0338125 0.0 
1.00006 -0.000394795 0.0 
0.971892 0.29421 0.0 
0.791949 0.340047 0.0 
0.158818 -0.0178001 0.0 
0.835868 -0.223701 0.0 
0.00180076 -0.000179506 0.0 
0.522302 0.0438022 0.0 
0.593623 0.0726325 0.0 
0.482104 0.0424408 0.0 
1.05879 -0.0160786 0.0 
0.254691 0.00723119 0.0 
0.841406 0.073804 0.0 
0.11706 0.0127154 0.0 
0.0029403 4.17892e-05 0.0 
0.155754 0.0145476 0.0 
0.608168 0.314298 0.0 
-9.45109e-149 7.40465e-150 0.0 
0.514625 0.0388684 0.0 
0.528772 0.084594 0.0 
0.162914 0.00663158 0.0 
0.749976 0.0504512 0.0 
0.869185 -0.0928067 0.0 
0.805072 0.247799 0.0 
0.134725 -0.022748 0.0 
0.999811 0.00372942 0.0 
0.0137957 -0.00142607 0.0 
1.20697e-250 5.95674e-251 0.0 
0.488509 -0.0607404 0.0 
3.96381e-07 7.37265e-09 0.0 
0.665536 0.0609288 0.0 
9.5244e-251 1.31463e-251 0.0 
0.0142465 -0.0010861 0.0 
1.32871e-252 -6.68493e-254 0.0 
1.00129 -0.00088706 0.0 
1.00311 0.0516658 0.0 
1.82345e-250 -1.31937e-250 0.0 
0.626143 0.0274667 0.0 
0.177817 -0.00743471 0.0 
4.81326e-257 -1.72342e-257 0.0 
1.06774e-256 3.77655e-257 0.0 
0.885014 0.0409751 0.0 
0.218444 -0.0265217 0.0 
0.199525 0.0284724 0.0 
0.762651 0.325987 0.0 
0.0182137 0.00135098 0.0 
0.255603 -0.00296111 0.0 
1.06256e-242 -2.08208e-243 0.0 
-2.01265e-23 1.9777e-24 0.0 
0.00576461 0.000601847 0.0 
1.00082 0 0.0 
0.28653 0.00517159 0.0 
1.04319 -0.0135609 0.0 
0.999838 0.000530094 0.0 
-2.19487e-44 -1.14117e-44 0.0 
0.205942 0.0336267 0.0 
0.137775 -0.0167225 0.0 
0.00635107 -0.00102918 0.0 
0.992346 -0.0152895 0.0 
6.85557e-08 9.98538e-09 0.0 
0.802639 -0.140028 0.0 
0.922429 0.058072 0.0 
0.273345 -0.0363015 0.0 
0.561729 0.0321301 0.0 
0.317587 0.0152089 0.0 
0.177819 -0.0437269 0.0 
0.772195 0.0161503 0.0 
0.0087816 0.000493184 0.0 
0.0975409 -0.00729984 0.0 
0.818743 -0.000745907 0.0 
0.0164154 -0.00114092 0.0 
1.28026e-241 -2.50707e-242 0.0 
0.759463 0.195507 0.0 
0.18779 -0.0059862 0.0 
5.37687e-212 4.67606e-213 0.0 
0.0046089 -9.89082e-05 0.0 
6.4639e-254 -2.78834e-254 0.0 
1.20172e-253 2.1193e-254 0.0 
0.372604 -0.00013346 0.0 
0.00849822 0.000565097 0.0 
0.161268 -0.0524978 0.0 
0.770137 0.027117 0.0 
0.361108 -0.0132466 0.0 
0.128843 -0.0109441 0.0 
0.598201 0.0591134 0.0 
1.5115e-251 -5.41203e-252 0.0 
0.0203248 0.000671339 0.0 
1.32006e-07 -8.08051e-09 0.0 
1.02499 -0.0125424 0.0 
0.735627 -0.127724 0.0 
1.08857 -0.166136 0.0 
0.0427516 -0.00370423 0.0 
0.0154644 -0.00167644 0.0 
0.36427 0.0026112 0.0 
0.999939 -6.28012e-06 0.0 
0.768358 0.035311 0.0 
0.0236623 0.000557681 0.0 
7.81468e-05 6.55051e-06 0.0 
0.0750501 0.0236438 0.0 
1.00007 6.65662e-05 0.0 
0.136512 0.00670816 0.0 
0.0559718 0.00643918 0.0 
0.595184 -0.348498 0.0 
0.999646 0.00095072 0.0 
-4.54154e-140 2.49605e-141 0.0 
0.453897 0.0186909 0.0 
0.929958 0.0166307 0.0 
0.325996 0.0188196 0.0 
0.319527 0.00382326 0.0 
0.946329 -0.144378 0.0 
1.07171e-254 -1.91567e-255 0.0 
0.959319 -0.237256 0.0 
1.00569 -0.0294343 0.0 
0.504538 0.00769712 0.0 
0.626184 -0.0735084 0.0 
2.43426e-253 9.35833e-254 0.0 
0.800654 -0.0796047 0.0 
0.709356 -0.379303 0.0 
0.402017 0.034181 0.0 
0.00743746 -0.000832604 0.0 
7.77689e-252 -4.47182e-252 0.0 
0.0254637 -0.00142478 0.0 
1.36049e-254 1.52489e-255 0.0 
0.134516 0.00326607 0.0 
0.112807 -0.0136414 0.0 
0.0566829 0.00992072 0.0 
0.298312 0.0355187 0.0 
0.0324632 0.000775812 0.0 
6.55018e-135 7.89394e-136 0.0 
0.777436 0.260663 0.0 
0.657616 -0.287497 0.0 
1.11791e-253 1.02878e-254 0.0 
0.0218552 0.00202499 0.0 
0.997187 0.0186363 0.0 
1.07507 8.76758e-05 0.0 
0.475255 0.0369596 0.0 
1.12118 0.0694577 0.0 
5.25614e-250 -3.02236e-250 0.0 
0.999909 -1.82593e-05 0.0 
1.1245 0.114173 0.0 
0.83566 -0.0304247 0.0 
0.716444 -0.268777 0.0 
0.999996 9.24491e-05 0.0 
0.417323 0.00294636 0.0 
1.60624e-255 1.81079e-256 0.0 
0.0662263 -0.00787982 0.0 
0.503093 0.00448584 0.0 
1.00596 -0.00484048 0.0 
0.790933 0.325664 0.0 
2.27051e-250 1.03669e-250 0.0 
1.4303e-05 -2.47815e-06 0.0 
0.941798 -0.117135 0.0 
0.507699 -0.0137487 0.0 
0.908581 -0.0966494 0.0 
-3.92137e-49 4.44242e-50 0.0 
0.717159 0.335475 0.0 
0.0230705 -0.000531311 0.0 
0.11197 0.00598223 0.0 
0.648154 0.254698 0.0 
2.86062e-05 2.47399e-06 0.0 
0.712198 0.269087 0.0 
0.0155199 0.000743477 0.0 
1.47956e-107 1.29305e-108 0.0 
0.0115809 0.000216711 0.0 
-1.07937e-164 -1.29906e-166 0.0 
1.04138 -0.0555645 0.0 
1.02584 0.00944342 0.0 
0.0788814 -0.00859797 0.0 
1.38396e-252 5.32053e-253 0.0 
0.776102 0.122669 0.0 
0.500106 0.0962224 0.0 
0.104146 0.00476075 0.0 
0.836404 0.355521 0.0 
0.452224 0.00919448 0.0 
1.07777 -0.0971713 0.0 
0.0156834 -4.42918e-05 0.0 
0.102038 0.00631444 0.0 
0.793005 0.136168 0.0 
0.465488 0.0256433 0.0 
0.999992 -0.000226228 0.0 
0.798032 0.00804474 0.0 
1.27181e-63 2.18889e-64 0.0 
0.677087 0.239756 0.0 
1.07412 0.117268 0.0 
0.00723637 0.000681771 0.0 
-1.82375e-185 4.26432e-186 0.0 
0.0318394 1.19674e-05 0.0 
1.00122 0 0.0 
0.876891 -0.253311 0.0 
1.1079 0.128888 0.0 
0.731736 0.346202 0.0 
0.508839 -0.0543741 0.0 
0.710685 0.374308 0.0 
0.00106453 -2.28071e-05 0.0 
0.84346 -0.0395444 0.0 
0.500661 0.0016671 0.0 
1.39543e-246 -7.59136e-248 0.0 
0.0426543 0.00287674 0.0 
-2.48039e-187 -2.1641e-188 0.0 
0.99973 0.000674643 0.0 
0.728695 0.306335 0.0 
1.00032 -0.000254508 0.0 
1.00673 0.0012787 0.0 
0.689082 0.0394449 0.0 
0.00932149 0.000679036 0.0 
-3.87724e-28 -3.48683e-29 0.0 
1.01572 -0.194543 0.0 
0.261944 0.0114292 0.0 
0.608873 -0.293579 0.0 
0.701326 0.17603 0.0 
0.247471 -0.0217094 0.0 
1.02187 -0.252258 0.0 
0.901608 0.0329984 0.0 
0.872192 0.11232 0.0 
-2.8061e-264 2.06794e-265 0.0 
0.276852 0.010717 0.0 
1.01721 0.00625385 0.0 
1.00205 -0.00295384 0.0 
0.0131432 0.000731965 0.0 
0.544096 0.101464 0.0 
0.856747 0.149705 0.0 
1.29167e-252 -2.32357e-253 0.0 
0.924722 -0.267727 0.0 
0.00700808 0.000661145 0.0 
0.526917 -0.00547399 0.0 
0.182944 0.00443067 0.0 
0.939915 0.221654 0.0 
1.00543 0 0.0 
-1.44122e-204 4.05896e-205 0.0 
0.999936 -3.40191e-05 0.0 
0.0749465 0.00363796 0.0 
0.58215 -0.430949 0.0 
1.0063 0.007166 0.0 
1.00027 0 0.0 
0.997712 -0.00175313 0.0 
0.44928 -0.10269 0.0 
0.541508 -0.0360466 0.0 
0.0562558 0.00495686 0.0 
0.0180998 0.00120841 0.0 
0.00755727 -0.000328764 0.0 
1.00215 0.000261238 0.0 
0.733961 0.0546807 0.0 
0.020207 0.00102073 0.0 
1.15147e-78 1.90264e-78 0.0 
0.0560976 0.00350987 0.0 
0.783092 0.364508 0.0 
0.842886 0.140581 0.0 
0.547057 -0.0620731 0.0 
0.0400386 0.00320993 0.0 
0.320106 -0.0281925 0.0 
6.13413e-244 -4.47218e-245 0.0 
0.0167362 0.000449734 0.0 
4.54494e-248 2.39403e-249 0.0 
0.270746 0.0160046 0.0 
0.472284 -0.0834215 0.0 
0.024709 0.000144223 0.0 
0.867543 0.0818142 0.0 
0.0911164 -0.0104695 0.0 
0.178971 -0.00500736 0.0 
1 0 0.0 
0.00712131 -0.00113446 0.0 
0.0501851 -0.00705917 0.0 
0.76182 0.370803 0.0 
3.60575e-98 2.50206e-99 0.0 
4.83068e-140 5.8217e-141 0.0 
0.242123 -0.0244992 0.0 
0.999814 -6.46638e-05 0.0 
0.953827 -0.0526172 0.0 
1.06361 0.011053 0.0 
1.00614 0 0.0 
0.749239 0.275148 0.0 
0.157826 -0.00149791 0.0 
1.74223e-95 1.33251e-96 0.0 
0.999933 -6.97728e-06 0.0 
0.0213598 -0.00944539 0.0 
0.224674 0.0550731 0.0 
0.340593 -0.146994 0.0 
0.372352 -0.146266 0.0 
0.171924 0.0233962 0.0 
1.06419 -0.100392 0.0 
0.996996 -0.0541494 0.0 
1.00134 0 0.0 
0.0735211 0.00102344 0.0 
0.789841 0.316548 0.0 
0.214165 -0.0298168 0.0 
0.844724 -0.0741982 0.0 
0.169489 0.0322744 0.0 