<VTKFile type="UnstructuredGrid" version="0.1" byte_order="LittleEndian">
  <UnstructuredGrid>
    <Piece NumberOfPoints="14834" NumberOfCells="29505">
      <Points>
        <DataArray type = "Float64" NumberOfComponents="3" format="ascii">
0 0 0.0 
14 0 0.0 
14 8 0.0 
0 8 0.0 
4.14666 3.96595 0.0 
4.556 3.95728 0.0 
4.37439 3.95213 0.0 
4.61236 3.99796 0.0 
4.61959 4.05661 0.0 
4.50067 4.06516 0.0 
4.55925 3.96222 0.0 
4.43105 3.94385 0.0 
4.62388 4.04964 0.0 
4.80056 3.98332 0.0 
4.0013 4.00055 0.0 
4.37982 3.97464 0.0 
4.18888 4.06244 0.0 
4.54695 3.96145 0.0 
4.28595 3.98108 0.0 
4.55587 3.95047 0.0 
4.69922 4.07757 0.0 
4.40656 4.0774 0.0 
4.74071 4.07319 0.0 
4.87574 4.00151 0.0 
4.88183 4.02168 0.0 
4.38844 3.97052 0.0 
4.82009 4.00256 0.0 
4.40847 3.97363 0.0 
4.33563 4.07482 0.0 
4.49135 4.07547 0.0 
4.32611 4.04618 0.0 
4.63341 4.06002 0.0 
4.87639 4.01053 0.0 
4.16531 4.09854 0.0 
4.08856 4.0281 0.0 
4.69885 4.05232 0.0 
4.40304 4.08004 0.0 
4.3414 4.08321 0.0 
4.39324 4.06967 0.0 
4.47101 4.04393 0.0 
4.88404 3.98136 0.0 
4.83899 3.97913 0.0 
4.25835 3.93615 0.0 
4.63071 3.99363 0.0 
4.71749 4.04916 0.0 
4.49811 4.07217 0.0 
4.66332 4.07218 0.0 
4.88967 4.0264 0.0 
4.43337 4.08172 0.0 
4.86495 4.03355 0.0 
4.59184 4.08559 0.0 
4.33893 4.07725 0.0 
4.24413 4.07048 0.0 
4.62237 4.0573 0.0 
4.68981 4.05109 0.0 
4.34422 3.99398 0.0 
4.09394 3.95313 0.0 
4.56408 4.07644 0.0 
4.08139 3.96756 0.0 
6.75055 8 0.0 
4.00962 4.08349 0.0 
4.66145 3.95832 0.0 
4.33627 4.08538 0.0 
4.84511 3.97618 0.0 
4.5736 4.08279 0.0 
4.56423 4.07079 0.0 
4.83082 3.97467 0.0 
4.46339 3.97821 0.0 
4.25185 4.10629 0.0 
4.34527 4.08962 0.0 
5.11147 5.17244 0.0 
3.96153 4.00199 0.0 
4.92569 3.99213 0.0 
4.83564 3.95745 0.0 
4.97651 4.00629 0.0 
4.89359 4.02282 0.0 
4.54109 4.08682 0.0 
4.43439 4.07413 0.0 
4.09258 3.95685 0.0 
4.53263 4.08714 0.0 
4.09533 4.03459 0.0 
4.56116 4.07326 0.0 
4.85391 3.93739 0.0 
4.97382 4.0317 0.0 
4.7415 4.04934 0.0 
4.49285 3.97252 0.0 
4.53662 4.09141 0.0 
4.64304 3.99281 0.0 
4.91996 4.0518 0.0 
4.92042 4.012 0.0 
4.33594 3.95353 0.0 
4.57409 4.06015 0.0 
3.93682 3.99751 0.0 
4.84746 3.98558 0.0 
4.7271 3.99714 0.0 
4.1098 4.03813 0.0 
4.73701 4.05852 0.0 
4.71395 4.01921 0.0 
4.92027 4.05962 0.0 
4.58746 4.07029 0.0 
5.20716 4.31458 0.0 
4.26017 3.96372 0.0 
14 2.68104 0.0 
4.85229 3.98112 0.0 
4.34571 4.08118 0.0 
4.47423 3.98477 0.0 
4.66736 4.06828 0.0 
3.9659 3.99998 0.0 
4.55843 4.07625 0.0 
4.67747 3.96306 0.0 
4.87884 4.01822 0.0 
4.70783 4.02555 0.0 
4.94344 4.00581 0.0 
5.13151 3.98359 0.0 
4.45189 5.16511 0.0 
4.39946 4.08619 0.0 
4.89492 4.0037 0.0 
4.6792 4.00181 0.0 
4.8893 4.00709 0.0 
4.19204 4.09437 0.0 
4.61051 4.07602 0.0 
3.99623 3.95956 0.0 
4.77998 4.03939 0.0 
4.01318 3.99886 0.0 
4.54368 4.08263 0.0 
4.61756 4.07578 0.0 
4.62545 4.06229 0.0 
4.97858 3.99786 0.0 
4.09517 4.04766 0.0 
4.18088 4.09303 0.0 
4.38285 4.0901 0.0 
4.567 4.06847 0.0 
14 6.39974 0.0 
4.56302 4.06822 0.0 
4.39921 3.98191 0.0 
4.79686 4.04861 0.0 
4.67395 3.9917 0.0 
4.89711 4.01779 0.0 
4.38029 3.93486 0.0 
4.43491 3.99119 0.0 
4.39413 4.09439 0.0 
4.60347 4.05311 0.0 
4.97586 4.02633 0.0 
4.72753 3.98866 0.0 
4.6846 3.96684 0.0 
4.67987 3.98812 0.0 
4.12761 3.96837 0.0 
4.69604 4.03813 0.0 
10.8821 7.73425 0.0 
4.38848 4.06886 0.0 
14 6.11123 0.0 
4.62142 4.07884 0.0 
4.48551 3.98519 0.0 
4.94157 4.02136 0.0 
4.37481 3.97551 0.0 
4.67606 3.99961 0.0 
4.60185 3.97481 0.0 
4.92034 4.00564 0.0 
3.96293 3.99513 0.0 
4.20265 3.9685 0.0 
4.71196 4.03001 0.0 
4.50037 3.96949 0.0 
4.44134 3.98251 0.0 
4.76136 3.97606 0.0 
0 6.15894 0.0 
4.72894 4.00651 0.0 
3.9208 3.98038 0.0 
4.66867 3.96873 0.0 
4.89153 4.01485 0.0 
4.68256 3.99509 0.0 
4.17766 3.95296 0.0 
4.38679 3.94523 0.0 
5.3386 4.01577 0.0 
4.0721 3.97622 0.0 
4.26101 4.05319 0.0 
4.69621 4.05178 0.0 
4.67076 3.97075 0.0 
4.87974 4.0103 0.0 
4.72667 4.00312 0.0 
4.68035 4.00765 0.0 
4.27248 3.96768 0.0 
4.50377 4.06482 0.0 
4.54008 4.05203 0.0 
4.78147 4.0574 0.0 
4.12028 3.95984 0.0 
4.09103 4.05136 0.0 
4.48474 3.99263 0.0 
4.60136 3.97747 0.0 
14 5.21618 0.0 
4.44087 3.96875 0.0 
4.43681 3.98253 0.0 
4.7882 4.0337 0.0 
4.4628 3.98334 0.0 
4.72023 3.96979 0.0 
4.73563 3.9759 0.0 
3.94943 3.96456 0.0 
4.20614 3.96147 0.0 
4.53965 3.95224 0.0 
5.03558 4.01499 0.0 
4.81255 4.03123 0.0 
4.70755 4.0096 0.0 
4.36388 3.98227 0.0 
4.88224 4.00576 0.0 
4.70017 4.03956 0.0 
3.99372 3.96326 0.0 
4.67702 3.99407 0.0 
4.72494 4.05675 0.0 
4.36562 3.96876 0.0 
4.28722 4.07763 0.0 
4.02802 4.02852 0.0 
4.42128 4.08882 0.0 
5.40467 3.95163 0.0 
4.73555 4.05504 0.0 
4.71363 4.01197 0.0 
4.19611 3.97177 0.0 
4.73214 4.05729 0.0 
4.15231 3.96511 0.0 
4.68259 3.96397 0.0 
4.91207 3.97246 0.0 
4.47007 3.98657 0.0 
4.38947 3.98962 0.0 
4.77697 4.03619 0.0 
4.87927 4.01522 0.0 
4.86553 3.99597 0.0 
4.82745 4.03481 0.0 
4.37854 8 0.0 
4.19169 3.9633 0.0 
4.28675 4.06752 0.0 
4.58833 4.05593 0.0 
4.49165 3.99572 0.0 
4.40562 4.09223 0.0 
4.42972 4.08407 0.0 
4.7 4.03298 0.0 
4.88288 4.01685 0.0 
4.27852 0 0.0 
4.08328 4.05633 0.0 
4.64757 4.05919 0.0 
4.93769 3.99355 0.0 
4.89499 4.00995 0.0 
4.09429 4.04417 0.0 
4.54909 4.06613 0.0 
4.70288 4.02099 0.0 
4.96289 4.0298 0.0 
4.75428 3.99011 0.0 
4.7024 4.01499 0.0 
4.93171 3.99584 0.0 
4.646 5.02371 0.0 
4.82438 4.0314 0.0 
4.18078 4.0585 0.0 
4.69991 8 0.0 
4.23795 4.08623 0.0 
4.05777 4.07462 0.0 
4.61973 4.06481 0.0 
4.20086 3.98047 0.0 
4.37631 4.05439 0.0 
4.33507 3.9698 0.0 
5.1939 4.01154 0.0 
4.5049 4.05017 0.0 
4.57272 4.05279 0.0 
4.88533 4.00658 0.0 
4.96574 4.01767 0.0 
4.43896 3.97525 0.0 
4.1741 4.07586 0.0 
4.29773 3.99561 0.0 
4.36149 4.4225 0.0 
4.71795 4.0254 0.0 
4.21513 3.9621 0.0 
4.08937 3.98816 0.0 
4.4206 4.0625 0.0 
4.90037 4.00982 0.0 
4.00537 4.01106 0.0 
4.07741 4.09639 0.0 
4.34588 4.08395 0.0 
4.96914 4.01616 0.0 
4.10455 4.07204 0.0 
4.49945 3.99617 0.0 
4.40482 3.95059 0.0 
4.82709 4.03285 0.0 
4.77076 4.11411 0.0 
4.72747 4.02304 0.0 
4.88929 4.00373 0.0 
5.0081 4.59353 0.0 
4.1608 4.0799 0.0 
4.29253 4.07772 0.0 
4.47711 3.96763 0.0 
4.29787 4.08604 0.0 
4.48121 3.95478 0.0 
4.52719 3.95184 0.0 
5.11626 3.97583 0.0 
4.77674 4.08004 0.0 
4.13332 4.078 0.0 
4.05144 4.03413 0.0 
5.03343 4.04568 0.0 
4.50618 4.05479 0.0 
5.24851 4.7453 0.0 
4.78195 4.0948 0.0 
4.15995 4.08755 0.0 
4.1365 4.04218 0.0 
4.5176 3.9952 0.0 
4.88201 4.01221 0.0 
4.32548 3.97319 0.0 
4.12652 4.07098 0.0 
4.00014 3.99779 0.0 
4.15036 3.96946 0.0 
4.23341 4.06808 0.0 
4.52792 3.9914 0.0 
4.32793 3.95312 0.0 
4.36718 4.84603 0.0 
4.42944 3.96142 0.0 
4.05238 4.02643 0.0 
4.50022 4.00017 0.0 
4.50768 3.94071 0.0 
4.76541 4.0384 0.0 
4.86724 3.08021 0.0 
4.52886 3.99517 0.0 
4.5125 3.99105 0.0 
4.90279 4.00562 0.0 
4.49949 3.93787 0.0 
4.45268 3.9782 0.0 
4.6001 4.09662 0.0 
4.60818 4.0134 0.0 
4.53921 3.99033 0.0 
4.48356 4.0715 0.0 
4.72196 3.98446 0.0 
4.26278 3.95989 0.0 
4.13878 4.03691 0.0 
4.48572 3.96941 0.0 
4.28255 3.97839 0.0 
4.86839 3.99445 0.0 
4.7336 3.11771 0.0 
4.12609 4.0738 0.0 
4.09678 4.05621 0.0 
4.80681 3.98808 0.0 
0 1.41887 0.0 
4.59328 4.00333 0.0 
4.67078 4.10686 0.0 
4.54169 4.06602 0.0 
4.9669 4.02157 0.0 
4.1817 4.06657 0.0 
4.77647 4.05222 0.0 
4.27663 3.96699 0.0 
4.78321 4.03119 0.0 
4.26501 3.96424 0.0 
4.63627 4.06772 0.0 
4.32243 3.98184 0.0 
4.19507 4.06293 0.0 
3.96933 3.9753 0.0 
4.54284 3.9556 0.0 
4.61514 4.1 0.0 
4.10586 4.06513 0.0 
4.71609 4.08749 0.0 
4.40776 3.96683 0.0 
4.17908 4.05447 0.0 
4.07153 4.04499 0.0 
4.04964 4.02232 0.0 
4.2171 3.96814 0.0 
4.1598 3.95452 0.0 
4.05572 3.97043 0.0 
4.51651 3.95776 0.0 
4.96406 4.01998 0.0 
4.16692 3.97697 0.0 
4.10407 4.04126 0.0 
4.25777 4.07923 0.0 
4.08705 4.05564 0.0 
4.70969 4.0488 0.0 
4.19367 4.07873 0.0 
4.70398 4.05637 0.0 
4.58653 4.07353 0.0 
4.41747 4.05072 0.0 
4.31978 3.96634 0.0 
4.50905 3.9342 0.0 
4.77632 4.03417 0.0 
4.1888 4.11786 0.0 
4.19927 3.93604 0.0 
4.12889 4.03655 0.0 
4.09634 3.96945 0.0 
4.19607 3.8988 0.0 
4.08137 3.93576 0.0 
4.21382 3.95463 0.0 
4.82526 4.04072 0.0 
4.58781 4.04277 0.0 
4.18914 4.08619 0.0 
4.78735 4.03924 0.0 
3.96293 4.03138 0.0 
4.3321 3.95111 0.0 
3.96023 4.01528 0.0 
4.19654 3.91902 0.0 
4.09129 3.94152 0.0 
4.32787 3.96891 0.0 
4.75622 4.09065 0.0 
4.06298 3.99231 0.0 
4.35306 3.95674 0.0 
4.67935 4.05045 0.0 
4.19366 3.95089 0.0 
4.37425 3.96152 0.0 
4.06539 3.94004 0.0 
4.31428 4.09628 0.0 
4.21125 3.95113 0.0 
4.08498 4.06408 0.0 
4.13741 4.02987 0.0 
4.34411 3.94361 0.0 
4.25425 3.96554 0.0 
4.86976 3.99665 0.0 
4.09664 3.95118 0.0 
5.15179 3.91843 0.0 
4.15143 3.94776 0.0 
4.84177 3.94186 0.0 
4.0541 3.92045 0.0 
3.94066 3.96869 0.0 
4.00797 3.99977 0.0 
4.17634 4.06973 0.0 
4.17701 3.97474 0.0 
4.94871 3.95621 0.0 
4.13173 3.98549 0.0 
5.12517 3.61603 0.0 
4.12072 3.97316 0.0 
3.99247 4.00671 0.0 
4.39725 4.07693 0.0 
4.72959 4.02871 0.0 
3.95815 3.977 0.0 
3.94639 4.01382 0.0 
4.72011 4.03098 0.0 
3.95778 3.98461 0.0 
4.211 3.97049 0.0 
3.9419 3.97853 0.0 
4.22373 4.08763 0.0 
4.17818 3.97758 0.0 
4.70487 4.0507 0.0 
4.33713 3.9559 0.0 
4.19018 4.05306 0.0 
4.3096 3.96715 0.0 
4.20364 3.95427 0.0 
4.96947 4.01882 0.0 
4.09978 3.94285 0.0 
4.01088 3.97335 0.0 
4.33838 3.95071 0.0 
4.53284 4.07898 0.0 
4.14098 4.01034 0.0 
4.94266 4.03811 0.0 
4.01948 4.03225 0.0 
4.0872 3.96166 0.0 
4.88218 3.99234 0.0 
4.11608 3.98977 0.0 
4.62503 4.04216 0.0 
4.16763 4.07537 0.0 
4.15652 4.04988 0.0 
4.14791 3.95513 0.0 
4.2093 4.12786 0.0 
4.87181 3.98856 0.0 
4.17263 3.97781 0.0 
4.6758 4.04551 0.0 
4.04716 3.92701 0.0 
4.49271 4.0617 0.0 
4.15076 4.11102 0.0 
5.28883 3.8985 0.0 
4.12709 3.97264 0.0 
4.93639 3.7238 0.0 
3.96476 4.03852 0.0 
3.94066 4.00569 0.0 
3.94478 3.98543 0.0 
4.15528 4.10297 0.0 
5.18422 3.81934 0.0 
3.97703 4.03147 0.0 
5.05759 3.99953 0.0 
4.58763 4.0538 0.0 
3.96822 4.02719 0.0 
3.97233 4.04194 0.0 
4.11967 3.92728 0.0 
4.54502 4.09612 0.0 
4.17005 4.11814 0.0 
4.32851 4.1085 0.0 
3.98682 3.9165 0.0 
4.94823 4.02133 0.0 
4.3658 3.99961 0.0 
[...]
<PointData>
  <DataArray type = "Float64" Name="Vitesse" NumberOfComponents="3" format="ascii">
1 0 0.0 
1.00005 0 0.0 
0.999991 0 0.0 
1 0 0.0 
0.0926318 -0.00277095 0.0 
0.527915 0.0327081 0.0 
0.452562 0.0235402 0.0 
-2.10074e-35 7.39998e-38 0.0 
0.101974 -0.013368 0.0 
0.0675972 -0.00417414 0.0 
0.447663 0.0276144 0.0 
0.590408 0.0246463 0.0 
1.40594e-22 8.17464e-24 0.0 
0.24953 0.00670475 0.0 
0.00102376 -0.00470708 0.0 
5.15214e-16 1.3147e-17 0.0 
0.0424049 0.00249383 0.0 
0.448038 0.025585 0.0 
3.83848e-24 -1.31535e-25 0.0 
0.615535 0.0395901 0.0 
0.666101 -0.0621229 0.0 
0.271711 -0.00581111 0.0 
0.656016 -0.0748181 0.0 
2.07356e-24 2.69458e-25 0.0 
0.0504014 -0.00963303 0.0 
0.0509936 -0.00241413 0.0 
-2.43628e-35 2.00946e-36 0.0 
0.000510985 5.73292e-05 0.0 
0.177582 0.00343894 0.0 
0.335013 -0.0215943 0.0 
-7.74495e-36 -4.80897e-37 0.0 
0.235916 -0.0185341 0.0 
-4.85026e-35 2.99568e-36 0.0 
0.821361 0.163751 0.0 
1.74576e-26 4.70566e-28 0.0 
0.189416 -0.0187941 0.0 
0.326016 -0.00731773 0.0 
0.367268 -0.000364306 0.0 
0.0592337 -0.00276046 0.0 
-6.2156e-36 -1.25686e-37 0.0 
0.434588 0.028827 0.0 
0.421139 0.0180106 0.0 
0.623945 0.0105533 0.0 
-2.49501e-35 6.46829e-37 0.0 
0.157744 -0.0214903 0.0 
0.267947 -0.0150957 0.0 
0.552796 -0.0473072 0.0 
0.232918 -0.0386487 0.0 
0.384938 -0.0180115 0.0 
0.306586 -0.0528931 0.0 
0.650893 -0.059728 0.0 
0.238687 0.0026968 0.0 
0.136426 0.00606552 0.0 
0.128501 -0.0128926 0.0 
0.13376 -0.0135403 0.0 
-6.76931e-36 -6.47741e-37 0.0 
0.61987 -0.0727457 0.0 
0.48222 -0.04006 0.0 
0.202765 -0.0209165 0.0 
1.00224 0 0.0 
0.800638 0.237999 0.0 
0.662295 0.0388047 0.0 
0.40471 2.72367e-05 0.0 
0.504678 0.0239226 0.0 
0.59812 -0.0530557 0.0 
0.360391 -0.0292675 0.0 
0.523407 0.0235531 0.0 
5.47204e-13 9.15593e-14 0.0 
0.740123 0.0688733 0.0 
0.476778 -0.00387443 0.0 
0.990316 0.000862507 0.0 
0.630334 -0.0779767 0.0 
0.19123 0.00334798 0.0 
0.817165 0.0360303 0.0 
0.0475508 -0.0077048 0.0 
0.145623 -0.0253795 0.0 
0.605453 -0.0491076 0.0 
0.212324 -0.0110012 0.0 
0.528497 -0.0576116 0.0 
0.598614 -0.0469014 0.0 
7.52284e-23 2.02777e-24 0.0 
0.411598 -0.0327361 0.0 
0.967106 0.0583677 0.0 
0.630549 -0.0998862 0.0 
0.233177 -0.0239084 0.0 
0.103742 0.0032449 0.0 
0.64734 -0.0531875 0.0 
1.10579e-23 4.85053e-25 0.0 
0.730656 -0.123554 0.0 
1.06883e-05 -1.83016e-06 0.0 
0.403607 0.014191 0.0 
0.0817449 -0.00880821 0.0 
0.732885 -0.0713052 0.0 
0.238985 0.0140221 0.0 
-3.20595e-35 -1.26801e-36 0.0 
-2.82843e-35 4.80567e-36 0.0 
0.417341 -0.0484392 0.0 
1.52986e-31 2.37297e-32 0.0 
0.777484 -0.132259 0.0 
0.395166 -0.0368486 0.0 
0.946457 -0.0578759 0.0 
0.134772 -0.000126214 0.0 
1 2.23415e-06 0.0 
0.383223 0.0208225 0.0 
0.328708 -0.00108884 0.0 
1.11595e-28 7.77939e-30 0.0 
0.488283 -0.0436401 0.0 
0.606759 -0.0963281 0.0 
0.468296 -0.0375327 0.0 
0.616674 0.03251 0.0 
2.31465e-05 -4.46955e-06 0.0 
-1.99643e-35 -2.02371e-37 0.0 
2.79976e-21 -1.62232e-22 0.0 
0.843663 0.0769816 0.0 
1.01356 -0.0280425 0.0 
0.439393 -0.0110985 0.0 
1.93607e-23 3.84206e-24 0.0 
1.05863e-31 1.13282e-32 0.0 
2.47685e-27 5.00644e-28 0.0 
0.732689 0.124563 0.0 
0.547707 -0.0476025 0.0 
0.785017 -0.350368 0.0 
0.112816 -0.0108563 0.0 
4.63387e-22 -2.66454e-22 0.0 
0.553743 -0.0443245 0.0 
0.554085 -0.0467697 0.0 
0.277063 -0.0228318 0.0 
0.0354217 0.0027295 0.0 
0.0602258 0.0139177 0.0 
0.746624 0.136091 0.0 
0.494443 -0.0104587 0.0 
0.30765 -0.0263404 0.0 
0.999984 -2.74736e-06 0.0 
0.292358 -0.0232087 0.0 
1.00891e-23 1.54462e-24 0.0 
0.380364 -0.0553294 0.0 
1.23248e-23 1.3175e-24 0.0 
0.0158529 -0.00235209 0.0 
0.634457 0.030247 0.0 
-1.11203e-35 -1.63883e-36 0.0 
0.554199 -0.0134518 0.0 
0.00103563 2.92779e-05 0.0 
0.553002 -0.0895258 0.0 
0.000553035 4.14627e-05 0.0 
0.555584 0.0274559 0.0 
1.03676e-21 1.03124e-22 0.0 
0.0459247 -0.000798654 0.0 
3.32468e-24 4.13948e-25 0.0 
1.00007 -2.03521e-05 0.0 
0.0324908 0.00059933 0.0 
0.99998 -2.79982e-06 0.0 
0.605314 -0.0507572 0.0 
9.44636e-27 2.04141e-27 0.0 
0.327193 -0.049852 0.0 
6.78253e-15 1.73067e-16 0.0 
1.95043e-28 2.08701e-29 0.0 
0.20662 0.00648555 0.0 
1.73508e-25 8.20667e-27 0.0 
0.63347 -0.118026 0.0 
0.000663132 -2.72323e-06 0.0 
4.02546e-25 6.24297e-26 0.0 
0.20402 0.00460118 0.0 
3.60605e-26 -1.19182e-27 0.0 
0.427409 0.0212076 0.0 
1 0 0.0 
-2.82493e-35 -8.88209e-37 0.0 
0.788214 -0.098493 0.0 
0.491804 0.0241056 0.0 
4.5099e-13 -5.58688e-14 0.0 
-1.92316e-35 -1.06566e-36 0.0 
0.394343 -0.0150309 0.0 
0.547385 0.0273954 0.0 
0.937194 0.0162201 0.0 
1.34415e-12 -2.64056e-13 0.0 
-5.25865e-37 -3.56827e-38 0.0 
0.167725 -0.0171115 0.0 
0.444498 0.0215083 0.0 
9.33378e-26 -9.81668e-27 0.0 
-2.93276e-35 -1.06604e-36 0.0 
-1.05153e-35 -5.22944e-37 0.0 
0.0227225 0.000716455 0.0 
0.0631429 -0.00964907 0.0 
4.93422e-25 -8.29556e-27 0.0 
0.499673 -0.0704346 0.0 
0.341295 -0.0217826 0.0 
0.28513 0.0711855 0.0 
-3.69973e-36 -3.84551e-37 0.0 
0.113737 -0.000324525 0.0 
0.999976 -2.47618e-06 0.0 
0.154586 0.0111069 0.0 
1.26353e-24 2.46916e-25 0.0 
0.00509047 -0.000663847 0.0 
3.63939e-16 6.69153e-17 0.0 
0.536431 0.0282689 0.0 
0.392263 0.0247905 0.0 
0.758765 -0.177655 0.0 
0.174529 -0.000955505 0.0 
0.581225 0.0319441 0.0 
0.484178 -0.0438063 0.0 
0.0143905 -0.0029121 0.0 
-2.35945e-35 -8.61575e-37 0.0 
3.86256e-22 8.7801e-23 0.0 
-4.85522e-35 1.7169e-36 0.0 
1.84826e-22 2.865e-23 0.0 
0.758873 -0.353744 0.0 
4.1959e-25 4.17337e-26 0.0 
0.354907 -0.0425766 0.0 
0.0814799 0.00444342 0.0 
0.25551 0.00616391 0.0 
0.195491 0.0954376 0.0 
0.495818 -0.0186547 0.0 
0.954134 0.0215367 0.0 
0.342373 -0.0399122 0.0 
-2.55878e-35 -7.89671e-37 0.0 
1.52969e-13 6.72363e-16 0.0 
0.381753 -0.0451723 0.0 
0.112593 -0.00364356 0.0 
0.606912 0.0315696 0.0 
0.68968 0.0621348 0.0 
-1.33769e-35 -1.40109e-36 0.0 
5.37581e-24 7.62643e-25 0.0 
0.0288187 -0.00130063 0.0 
1.45472e-17 -1.87337e-18 0.0 
1.54804e-16 3.54184e-17 0.0 
0.173798 -0.0268613 0.0 
1.00494 0 0.0 
0.12833 -0.00488187 0.0 
0.00982582 9.68968e-05 0.0 
1.17521e-11 -9.00956e-14 0.0 
-1.05837e-36 -9.48605e-38 0.0 
0.532561 -0.0156161 0.0 
0.426391 -0.0184469 0.0 
-1.58077e-35 -7.84696e-39 0.0 
2.4592e-16 -3.17956e-17 0.0 
1.00448 0 0.0 
0.535983 0.140334 0.0 
0.241944 -0.0212479 0.0 
0.151685 0.00606562 0.0 
1.61549e-23 -1.58204e-24 0.0 
8.34901e-13 2.05796e-13 0.0 
0.198313 -0.0130021 0.0 
-1.76097e-35 -4.2244e-37 0.0 
0.580169 -0.0917824 0.0 
2.64878e-13 2.06195e-14 0.0 
-1.88107e-35 -6.21697e-37 0.0 
0.00788204 0.000340976 0.0 
1.0383 -0.0308225 0.0 
0.0695874 -0.00915562 0.0 
4.14524e-13 4.49871e-14 0.0 
1.00492 0 0.0 
0.50012 0.0473875 0.0 
0.846637 0.26762 0.0 
0.331731 -0.0281767 0.0 
-1.29296e-35 2.94382e-37 0.0 
-3.10842e-36 -1.62483e-37 0.0 
0.00898906 -2.11779e-05 0.0 
0.850958 0.0325203 0.0 
-1.51754e-35 1.66406e-37 0.0 
1.36574e-14 -6.07158e-16 0.0 
1.98631e-29 3.10046e-30 0.0 
0.327287 -0.0544013 0.0 
1.08082e-12 5.33088e-14 0.0 
0.518167 0.0835657 0.0 
-1.23866e-36 -2.03126e-38 0.0 
1.14626 0.11416 0.0 
1.91145e-27 2.96442e-28 0.0 
0.157834 0.00314549 0.0 
7.2825e-25 -3.66327e-26 0.0 
2.87175e-14 3.19466e-15 0.0 
9.04068e-24 -8.14688e-25 0.0 
0.00895586 0.00931937 0.0 
0.891707 0.235681 0.0 
0.382379 -0.00203328 0.0 
0.3007 -0.0508822 0.0 
0.748815 0.166068 0.0 
-1.03047e-36 -9.20287e-38 0.0 
0.500336 0.0218121 0.0 
0.119634 -0.018675 0.0 
0.859235 -0.119949 0.0 
-2.53846e-35 -1.59782e-37 0.0 
1.02047e-24 2.18659e-25 0.0 
1.03591 -0.0666804 0.0 
0.650198 0.117895 0.0 
0.253749 0.008335 0.0 
0.226768 0.0110242 0.0 
0.416813 0.0105845 0.0 
0.501042 0.0215003 0.0 
0.576607 0.0291651 0.0 
0.86849 0.0863127 0.0 
0.764614 -0.104651 0.0 
0.722364 0.142588 0.0 
7.35846e-12 1.76714e-12 0.0 
0.771019 -0.0872121 0.0 
8.97132e-25 3.71645e-26 0.0 
1.0365 -0.02645 0.0 
0.842743 -0.1189 0.0 
0.747281 0.14411 0.0 
4.38403e-24 6.05119e-25 0.0 
-7.20976e-36 -3.53184e-37 0.0 
-4.96834e-35 3.169e-36 0.0 
3.88547e-14 3.91318e-15 0.0 
0.636792 0.122424 0.0 
0.0482782 -0.110649 0.0 
5.70547e-14 -7.78948e-16 0.0 
0.0941661 0.00850667 0.0 
-1.71102e-35 -8.3341e-37 0.0 
0.406551 0.0115869 0.0 
1.05987 -0.000357607 0.0 
0.342783 0.0102819 0.0 
-1.74101e-35 1.39702e-36 0.0 
-8.08032e-37 -5.4621e-38 0.0 
0.667246 0.0333368 0.0 
0.0355568 -0.0091585 0.0 
1.00079 0.0146901 0.0 
-1.60008e-35 -7.79192e-37 0.0 
-5.40281e-36 -3.68401e-37 0.0 
2.8725e-25 3.70359e-26 0.0 
0.678458 0.0344844 0.0 
1.49453e-22 2.30993e-23 0.0 
0.734988 -0.0690047 0.0 
-5.18076e-36 3.36837e-38 0.0 
-2.4987e-35 -1.2168e-36 0.0 
0.22391 -0.012507 0.0 
0.0658949 0.00664095 0.0 
0.234503 0.00404936 0.0 
-7.61784e-36 1.32039e-36 0.0 
0.187978 0.00718244 0.0 
8.2353e-23 -3.06879e-24 0.0 
1.90779e-12 4.30464e-13 0.0 
1.00427 0.0183585 0.0 
0.688388 0.135625 0.0 
0.424941 0.0972505 0.0 
0.0825889 0.00122771 0.0 
1 0 0.0 
-1.41821e-35 -6.92143e-37 0.0 
0.799247 -0.0753081 0.0 
0.179595 -0.0181877 0.0 
0.429192 -0.070191 0.0 
0.228482 0.0375308 0.0 
0.390232 -0.0535276 0.0 
0.0570276 0.00182275 0.0 
1.44935e-13 -2.23769e-14 0.0 
0.123678 0.00310175 0.0 
0.430466 -0.0354724 0.0 
-1.03348e-35 -9.77725e-37 0.0 
0.0431503 0.00438943 0.0 
0.680734 -0.223836 0.0 
0.540302 0.0300107 0.0 
0.75489 -0.0704466 0.0 
0.622963 0.131526 0.0 
0.76863 -0.0763113 0.0 
0.182734 0.00723283 0.0 
5.88386e-22 1.03866e-22 0.0 
0.228837 0.0529287 0.0 
5.50871e-24 2.11778e-24 0.0 
0.00844037 0.000385909 0.0 
0.38548 -0.0180787 0.0 
0.251054 -0.0399449 0.0 
0.483024 0.0229938 0.0 
0.380435 -0.0624993 0.0 
7.6946e-27 2.17339e-29 0.0 
2.78993e-21 7.52021e-23 0.0 
0.32466 0.0223348 0.0 
0.484302 0.123834 0.0 
0.12755 -0.0137118 0.0 
0.496353 0.0725442 0.0 
0.301279 -0.030743 0.0 
0.463548 -0.0427126 0.0 
-2.21608e-35 -1.0822e-36 0.0 
0.0960285 0.0061248 0.0 
0.701831 0.0375031 0.0 
1.34354e-12 4.84215e-14 0.0 
0.883153 0.16118 0.0 
0.661261 -0.0190699 0.0 
-1.45514e-35 2.52263e-36 0.0 
0.0749733 -0.00832893 0.0 
0.901403 -0.0606509 0.0 
0.906131 -0.164701 0.0 
0.334783 0.00242583 0.0 
0.310968 -0.0486745 0.0 
2.44225e-26 1.44606e-27 0.0 
0.640657 0.105474 0.0 
0.132399 -0.0194792 0.0 
0.662334 0.0667716 0.0 
0.443803 0.0140576 0.0 
0.639749 -0.00751836 0.0 
0.822934 -0.039929 0.0 
0.831342 -0.1263 0.0 
0.0363588 0.00190236 0.0 
0.811369 -0.098788 0.0 
-3.57141e-35 4.58356e-36 0.0 
0.354147 0.0184297 0.0 
0.0864768 -0.00837615 0.0 
0.42292 -0.00840243 0.0 
0.278428 0.0131705 0.0 
0.920684 -0.199109 0.0 
0.565701 0.00551691 0.0 
0.40849 0.000278015 0.0 
0.709238 0.18426 0.0 
-7.6303e-36 1.32326e-36 0.0 
0.553916 0.0213429 0.0 
0.083484 0.00350342 0.0 
1.67335e-13 3.82857e-14 0.0 
0.652649 -0.0771938 0.0 
0.940984 0.0735343 0.0 
0.550734 -0.0380962 0.0 
0.94287 0.0492725 0.0 
0.960224 -0.235438 0.0 
0.765693 -0.151139 0.0 
1.21393e-22 -8.78236e-23 0.0 
0.350807 0.0514962 0.0 
1.04055e-22 3.62099e-24 0.0 
0.909602 0.087897 0.0 
1.39199e-25 -3.80669e-26 0.0 
1.02882 0.0496872 0.0 
2.09084e-13 -2.50996e-14 0.0 
0.259214 -0.021799 0.0 
0.251778 -0.00641395 0.0 
-2.33315e-35 1.56031e-37 0.0 
0.703387 -0.175224 0.0 
0.696643 -0.0201513 0.0 
3.38005e-26 5.24204e-27 0.0 
0.682108 -0.149981 0.0 
1.13648e-12 6.90213e-14 0.0 
0.74305 -0.131215 0.0 
0.55875 0.0656978 0.0 
1.67603e-23 7.83161e-25 0.0 
0.163301 -0.0163938 0.0 
0.359304 0.012995 0.0 
5.25772e-22 9.27235e-23 0.0 
0.0724149 -0.003593 0.0 
0.345624 -0.00204646 0.0 
0.372146 -0.0617937 0.0 
0.785409 -0.105363 0.0 
0.745888 -0.406055 0.0 
0.453899 0.0167352 0.0 
0.477128 -0.0349916 0.0 
-4.2042e-36 7.40057e-37 0.0 
0.64917 -0.102337 0.0 
0.531888 0.277708 0.0 
0.402566 -0.0412067 0.0 
0.0691324 0.003179 0.0 
2.15951e-26 -3.24976e-27 0.0 
-5.40862e-36 -2.20052e-37 0.0 
0.537083 0.0886781 0.0 
2.24252e-24 3.96004e-25 0.0 
0.396365 -0.0230715 0.0 
0.897421 0.143398 0.0 
0.17989 0.0125454 0.0 
5.9426e-26 2.98693e-28 0.0 
1.23223e-13 2.32187e-15 0.0 
0.953393 -0.25029 0.0 
0.000190996 -1.97897e-06 0.0 
0.887928 0.188841 0.0 
0.942178 0.0462336 0.0 
3.24512e-21 -8.2508e-22 0.0 
1.00278 0.108365 0.0 
0.676876 0.0944197 0.0 
0.716594 -0.0480379 0.0 
0.722774 -0.117854 0.0 
0.858077 0.178711 0.0 
0.957934 0.0598427 0.0 
0.610853 0.115766 0.0 
0.57455 0.0534023 0.0 
7.18046e-13 -5.27161e-15 0.0 
0.628839 0.0652637 0.0 
0.668833 0.127001 0.0 
0.875848 -0.11663 0.0 
0.691675 -0.0601011 0.0 
0.893797 0.179131 0.0 
0.691377 0.00198726 0.0 
0.889303 -0.253689 0.0 
0.35314 -0.055931 0.0 
-6.97212e-36 -7.06929e-37 0.0 
0.670551 -0.00414773 0.0 
0.514298 -0.0398926 0.0 
1.02975 -0.0121478 0.0 
0.129133 0.00576538 0.0 
0.448155 0.0663084 0.0 
0.329021 -0.0221652 0.0 
4.50648e-16 1.94785e-17 0.0 
0.766821 -0.0377341 0.0 
0.166494 0.0122946 0.0 
0.377853 -0.00930239 0.0 
0.380143 0.0191301 0.0 
0.985969 -0.0509876 0.0 
0.213499 -0.0454871 0.0 
2.11898e-26 8.37342e-28 0.0 
0.24397 -0.0176898 0.0 
0.386276 -0.00855878 0.0 
1.34147e-22 -3.33456e-23 0.0 
1.00041 0 0.0 
0.174848 0.0129946 0.0 
1.14046e-22 -2.654e-23 0.0 
0.702687 -0.0715346 0.0 
0.39963 -0.00925225 0.0 
1.5275e-14 -9.38396e-16 0.0 
0.639151 -0.105104 0.0 
1.03355 0.0119325 0.0 
0.655231 -0.104819 0.0 
-1.07043e-35 1.22562e-37 0.0 
0.733772 -0.0110005 0.0 
2.45753e-12 6.78726e-13 0.0 
0.967721 -0.0168601 0.0 
0.498331 -0.0791764 0.0 
0.292571 -0.0525883 0.0 
0.866355 -0.0400321 0.0 
0.716355 -0.114034 0.0 
0.859501 -0.137604 0.0 
-1.17728e-35 -2.29219e-37 0.0 
0.244774 0.0123938 0.0 
0.142214 0.00888806 0.0 
1.24344e-14 1.5862e-15 0.0 
0.509766 -0.0670294 0.0 
1.00099 0 0.0 
1.08659 0.0786226 0.0 
0.565315 -0.0427322 0.0 
-7.79298e-36 2.95284e-37 0.0 
0.474395 -0.0375394 0.0 
0.982944 -0.0018114 0.0 
0.26515 -0.0436131 0.0 
0.0138776 0.00119704 0.0 
0.00373115 -0.000189343 0.0 
0.0759312 -0.00219502 0.0 
0.156476 -0.0158262 0.0 
0.914227 -0.161239 0.0 
0.288346 0.00700132 0.0 
6.94664e-15 -2.92381e-16 0.0 
1.22865e-11 1.62876e-12 0.0 
0.0137915 0.000183564 0.0 
0.417779 -0.0716773 0.0 
0.63418 -0.0996118 0.0 
0.581676 -0.0770649 0.0 
0.99993 2.54193e-05 0.0 
0.963704 0.0878517 0.0 
0.948837 -0.240826 0.0 
0.625484 -0.0619641 0.0 
1.71212e-05 6.38814e-07 0.0 
0.742575 -0.130449 0.0 
0.0171037 -0.00262017 0.0 
0.0130894 0.00227212 0.0 
0.457149 -0.0319548 0.0 
0.652064 -0.114058 0.0 
-2.88986e-37 -1.7889e-38 0.0 
0.557632 -0.050684 0.0 
0.0170542 -0.000229358 0.0 
1.10812 0.134153 0.0 
0.525115 -0.0815351 0.0 
1.11018 -0.0399336 0.0 
0.00311334 0.000153258 0.0 
-6.22099e-36 -9.11077e-37 0.0 
0.458116 0.0242731 0.0 
0.000467603 4.3047e-05 0.0 
-7.31868e-37 -3.80515e-38 0.0 
0.936413 -0.233742 0.0 
0.34393 0.00512905 0.0 
4.8665e-27 6.32398e-28 0.0 
0.1421 0.00920055 0.0 
0.593622 -0.0206679 0.0 
0.289585 0.00435151 0.0 
0.319685 -0.0513422 0.0 
0.0961469 0.00487937 0.0 
0.369965 -0.0549885 0.0 
1.01397e-23 1.19401e-24 0.0 
0.676009 -0.0212928 0.0 
0.729135 0.024748 0.0 
0.239505 0.0231728 0.0 
8.16792e-24 3.22766e-25 0.0 
0.102849 -0.0110143 0.0 
1.00085 0 0.0 
0.20985 -0.0376558 0.0 
-4.4577e-35 1.99842e-36 0.0 
0.544471 -0.0415832 0.0 
0.833577 0.0317846 0.0 
1.37501e-23 1.8979e-24 0.0 
0.70386 0.0630694 0.0 
0.453061 0.0276277 0.0 
0.771536 -0.0544344 0.0 
0.543453 0.037783 0.0 
0.660588 0.0269964 0.0 
1.47666e-12 -5.42232e-14 0.0 
0.630432 0.0292629 0.0 
0.70606 -0.011167 0.0 
0.712783 -0.045273 0.0 
1.00506 3.31433e-05 0.0 
0.771871 -0.022635 0.0 
0.142607 0.0038193 0.0 
0.545758 0.269655 0.0 
-4.29283e-35 1.60975e-36 0.0 
0.23185 -0.0232708 0.0 
1.00037 -0.000175529 0.0 
0.772411 0.0316333 0.0 
0.455486 -0.0793011 0.0 
0.984382 0.0661182 0.0 
0.501648 0.0190202 0.0 
0.770133 -0.117252 0.0 
0.0480997 0.00231967 0.0 
0.401725 -0.0255427 0.0 
0.753656 -0.066435 0.0 
0.639593 0.0390111 0.0 
0.32517 -0.0552846 0.0 
0.746538 0.033904 0.0 
1.00089 -0.00057794 0.0 
0.534893 0.297834 0.0 
0.327938 0.00571648 0.0 
2.4699e-24 2.70957e-25 0.0 
9.27878e-24 1.05078e-24 0.0 
0.419025 0.00786569 0.0 
0.20588 0.00397341 0.0 
0.678458 0.0708863 0.0 
1.00237 -0.000312428 0.0 
0.48248 -0.0470207 0.0 
0.370018 -0.0636497 0.0 
0.560332 0.0105908 0.0 
0.630201 -0.099205 0.0 
0.425842 -0.0696503 0.0 
0.662848 -0.0656541 0.0 
0.835752 0.0338741 0.0 
0.497607 0.0324141 0.0 
0.35558 -0.0419704 0.0 
1.00581 0.0348211 0.0 
0.548864 -0.0859297 0.0 
0.160152 0.00449897 0.0 
0.633477 -0.110898 0.0 
0.515312 0.0277112 0.0 
0.235306 0.00829709 0.0 
-9.65214e-36 -5.99318e-37 0.0 
0.867302 0.0339197 0.0 
0.434916 -0.0715439 0.0 
0.961802 0.0936982 0.0 
-1.8985e-35 -9.2821e-37 0.0 
0.597814 -0.105764 0.0 
0.65699 -0.0110196 0.0 
0.459626 -0.447577 0.0 
0.466807 0.0195497 0.0 
0.596082 0.0442033 0.0 
0.460811 0.0013487 0.0 
0.451538 0.0241372 0.0 
-2.45726e-36 -2.36088e-37 0.0 
0.987528 0.0132428 0.0 
0.407063 0.00553791 0.0 
0.108511 0.00739172 0.0 
1.22669 -0.0584111 0.0 
0.392823 -0.0254926 0.0 
0.325836 -0.0282709 0.0 
0.568841 -0.10076 0.0 
1.04578 -0.0436077 0.0 
2.82695e-05 1.78449e-06 0.0 
-5.81927e-36 -5.57165e-37 0.0 
0.389268 -0.0253305 0.0 
0.550267 0.0354991 0.0 
0.557724 -0.0555663 0.0 
1.00364 0.092919 0.0 
0.398585 0.0312949 0.0 
0.54285 -0.0960263 0.0 
0.26374 -0.0511763 0.0 
0.110809 -0.00888031 0.0 
0.668103 -0.105404 0.0 
2.88141e-13 3.09697e-14 0.0 
0.725628 -0.0764022 0.0 
0.519927 0.0341065 0.0 
0.655087 0.0328171 0.0 
0.748616 -0.134106 0.0 
0.998833 -0.00950983 0.0 
0.983853 0.0287556 0.0 
0.197164 -0.00322024 0.0 
0.046216 0.00382097 0.0 
9.32599e-05 3.39321e-06 0.0 
0.587982 -0.0920768 0.0 
0.514219 0.0110114 0.0 
0.379615 0.18824 0.0 
0.28704 0.0156315 0.0 
0.245049 0.0118944 0.0 
0.0509807 -0.00232094 0.0 
0.686428 -0.11441 0.0 
0.238615 0.00167815 0.0 
0.416766 0.0199603 0.0 
0.00027049 1.74075e-05 0.0 
0.155801 0.00272005 0.0 
-8.95763e-37 -7.42906e-38 0.0 
0.0846737 -0.00510413 0.0 
0.437631 0.0224318 0.0 
0.638975 0.0480938 0.0 
1.46884e-22 1.38903e-23 0.0 
0.496483 0.0245765 0.0 
0.442635 -0.0711304 0.0 
0.378725 -0.00701333 0.0 
0.530699 -0.00645752 0.0 
-2.53468e-36 -1.57383e-37 0.0 
0.143567 0.00599371 0.0 
8.91923e-25 9.55695e-26 0.0 
3.81232e-23 3.67565e-24 0.0 
0.220324 0.0455654 0.0 
0.726464 0.0603903 0.0 
0.65281 0.00497443 0.0 
9.11314e-25 -5.24019e-25 0.0 
1.13091 0.109544 0.0 
1.52281e-22 5.69969e-24 0.0 
0.418973 0.239884 0.0 
0.441092 -0.0386219 0.0 
0.0319949 0.00245557 0.0 
0.500127 0.000199796 0.0 
0.534926 0.0445504 0.0 
0.514795 0.0426406 0.0 
0.621798 -0.100286 0.0 
0.430148 0.00108376 0.0 
1.01507 -0.00483851 0.0 
3.53267e-22 1.21896e-23 0.0 
-2.22962e-36 -1.38441e-37 0.0 
1.5849e-25 2.1876e-26 0.0 
1.1397 -0.00890688 0.0 
0.194367 0.0120505 0.0 
-8.17873e-36 -5.07832e-37 0.0 
0.778405 -0.126806 0.0 
-3.86271e-36 -2.39843e-37 0.0 
0.430338 0.00684549 0.0 
3.08663e-14 -1.75796e-15 0.0 
-8.37117e-36 -1.0713e-37 0.0 
0.654686 -0.110205 0.0 
0.0491875 -0.00318377 0.0 
0.000359884 -3.0081e-06 0.0 
0.325033 0.0105775 0.0 
8.97036e-24 -2.70898e-25 0.0 
-8.7908e-37 -5.45836e-38 0.0 
0.750944 0.00854762 0.0 
1.1485 -0.0277448 0.0 
-5.28579e-37 -5.0578e-38 0.0 
-1.10822e-35 -6.88116e-37 0.0 
0.432369 0.0748738 0.0 
0.00167362 0.000167174 0.0 
0.486174 0.023649 0.0 
2.74182e-23 5.6572e-24 0.0 
0.101835 -0.0140839 0.0 
1.17687 0.111752 0.0 
-1.30159e-35 -8.08182e-37 0.0 
1.17556 -0.0630036 0.0 
0.851216 0.0557394 0.0 
0.534859 -0.0990873 0.0 
0.230647 0.00166272 0.0 
0.382001 -0.00682939 0.0 
0.209596 0.00938561 0.0 
-1.65585e-35 -1.02815e-36 0.0 
1.04133 0.0146357 0.0 
3.08692e-27 -9.32227e-29 0.0 
0.585062 0.0199282 0.0 
2.94814e-25 -1.53626e-26 0.0 
0.00753552 0.000491446 0.0 
0.173279 -0.00316549 0.0 
1.27692e-28 1.43967e-29 0.0 
0.694346 0.0254119 0.0 
0.644168 0.0402642 0.0 
0.331735 0.01676 0.0 
0.536243 0.0020462 0.0 
0.803466 -0.00876962 0.0 
1.20259 0.0145868 0.0 
-3.13933e-38 -2.3876e-39 0.0 
0.560708 0.0361745 0.0 
-5.55546e-37 -3.25983e-38 0.0 
0.666036 0.0932649 0.0 
3.58406e-13 6.27769e-14 0.0 
-1.10532e-36 1.91606e-37 0.0 
0.270134 0.196932 0.0 
0.326571 0.226553 0.0 
0.999995 0 0.0 
0.603503 0.0891278 0.0 
0.566969 0.0936407 0.0 
1.08388e-24 -4.22033e-26 0.0 
0.57318 0.0388866 0.0 
0.347089 0.0333585 0.0 
1.08467 0.0853127 0.0 
0.0739179 -0.00793756 0.0 
0.693061 0.298037 0.0 
0.0168194 -0.00201842 0.0 
0.400807 0.0184406 0.0 
1.00285 0.037659 0.0 