<VTKFile type="UnstructuredGrid" version="0.1" byte_order="LittleEndian">
  <UnstructuredGrid>
    <Piece NumberOfPoints="12618" NumberOfCells="25078">
      <Points>
        <DataArray type = "Float64" NumberOfComponents="3" format="ascii">
0 0 0.0 
14 0 0.0 
14 8 0.0 
0 8 0.0 
4.38439 3.94377 0.0 
12.8057 1.94595 0.0 
0.483697 5.24337 0.0 
4.10334 3.96914 0.0 
4.34655 4.07101 0.0 
4.00044 4.00535 0.0 
4.6792 3.84294 0.0 
4.82977 3.9905 0.0 
4.00463 3.98938 0.0 
4.90472 4.03307 0.0 
4.08596 3.93674 0.0 
4.17776 4.06995 0.0 
4.0366 3.96299 0.0 
4.40144 3.95595 0.0 
4.42579 4.0677 0.0 
5.67581 4.18091 0.0 
4.05477 4.02613 0.0 
4.09301 4.068 0.0 
4.17043 4.04947 0.0 
8.29677 5.77683 0.0 
4.1189 4.05833 0.0 
4.42948 3.97279 0.0 
4.00922 3.99881 0.0 
4.02803 4.04844 0.0 
1.96789 8 0.0 
4.01927 3.99345 0.0 
4.02112 3.98332 0.0 
4.11094 4.03801 0.0 
4.84218 4.09374 0.0 
4.14442 3.96751 0.0 
3.98196 3.98783 0.0 
5.00749 4.02107 0.0 
4.36023 4.05917 0.0 
5.02948 4.10767 0.0 
5.00462 3.99433 0.0 
4.03416 4.05264 0.0 
4.0146 3.99506 0.0 
4.12387 3.9193 0.0 
5.00166 3.98677 0.0 
4.59463 4.05526 0.0 
4.00788 3.94748 0.0 
0.44426 0.940171 0.0 
4.10229 4.05392 0.0 
4.37635 3.97129 0.0 
4.46793 4.0655 0.0 
4.98975 4.00347 0.0 
4.47426 3.97395 0.0 
4.08781 3.96517 0.0 
4.21308 3.96737 0.0 
4.62278 3.95949 0.0 
4.19203 3.91913 0.0 
10.8833 7.73481 0.0 
14 6.11123 0.0 
6.39807 7.03773 0.0 
3.96293 3.99513 0.0 
4.03268 4.02147 0.0 
5.35939 3.9346 0.0 
3.99903 4.00913 0.0 
4.86779 3.98608 0.0 
3.99922 3.99464 0.0 
1.2275 1.74777 0.0 
3.86973 4.04926 0.0 
4.99983 4.00536 0.0 
14 5.21618 0.0 
4.44967 3.97286 0.0 
8.55881 8 0.0 
4.06971 4.04312 0.0 
4.61945 4.05425 0.0 
5.05366 4.0148 0.0 
4.44926 4.07505 0.0 
4.02787 4.27323 0.0 
5.23407 4.05512 0.0 
4.75502 3.93226 0.0 
9.77113 7.50778 0.0 
4.27441 4.05318 0.0 
4.29713 4.07063 0.0 
4.23647 3.95137 0.0 
5.00128 3.99352 0.0 
4.08373 4.05666 0.0 
3.99602 4.00219 0.0 
4.18971 4.12812 0.0 
5.04845 4.04311 0.0 
1.00756 4.75511 0.0 
4.81435 4.03049 0.0 
4.77416 3.988 0.0 
4.16994 4.05832 0.0 
4.14605 3.99724 0.0 
6.01183 1.03446 0.0 
4.02545 4.02772 0.0 
12.6881 5.02596 0.0 
10.1833 0.248119 0.0 
4.02875 4.04115 0.0 
4.1741 4.07586 0.0 
4.14471 4.01534 0.0 
3.7391 1.31631 0.0 
1.26284 5.53443 0.0 
4.08315 4.04403 0.0 
4.60932 3.92232 0.0 
4.00869 3.98266 0.0 
3.91267 2.38613 0.0 
5.0659 4.12407 0.0 
3.96809 3.98366 0.0 
4.93369 4.06282 0.0 
4.12124 3.98374 0.0 
4.06046 4.04343 0.0 
4.006 4.11509 0.0 
4.15544 3.92346 0.0 
3.99998 3.99906 0.0 
4.29386 4.06983 0.0 
11.5731 8 0.0 
4.02244 4.02798 0.0 
4.94971 3.99555 0.0 
0 1.4212 0.0 
5.182 4.12651 0.0 
4.13575 4.06721 0.0 
3.74089 4.14797 0.0 
5.01331 3.98969 0.0 
5.01215 3.99407 0.0 
4.72191 4.042 0.0 
4.64849 4.0512 0.0 
4.12754 3.92728 0.0 
3.99964 4.01132 0.0 
4.79296 3.98918 0.0 
4.08696 3.9688 0.0 
4.54553 1.01364 0.0 
4.196 3.98086 0.0 
9.83725 5.84985 0.0 
4.86114 3.98044 0.0 
4.02639 3.97894 0.0 
3.99252 4.00665 0.0 
4.00947 4.02943 0.0 
13.2096 6.91331 0.0 
3.95734 4.00923 0.0 
4.19416 4.06453 0.0 
5.53497 3.74047 0.0 
4.24294 4.04149 0.0 
4.05784 3.98854 0.0 
4.37631 4.06936 0.0 
4.00862 3.98581 0.0 
4.10081 3.94382 0.0 
4.98235 4.01343 0.0 
7.44293 1.91428 0.0 
5.00368 4.02219 0.0 
10.7396 5.64099 0.0 
4.42732 3.97222 0.0 
5.72494 4.06934 0.0 
4.07325 4.06871 0.0 
2.95036 4.65925 0.0 
3.9818 4.03131 0.0 
3.96476 4.03852 0.0 
3.90627 4.04974 0.0 
3.97233 4.04194 0.0 
4.63216 4.65254 0.0 
3.99803 4.00953 0.0 
4.00621 4.04562 0.0 
1.12644 3.34247 0.0 
3.92251 4.00785 0.0 
4.21924 4.07784 0.0 
4.31565 3.98045 0.0 
4.1771 3.73627 0.0 
4.77037 3.98712 0.0 
4.19072 3.96663 0.0 
0.471297 5.53111 0.0 
13.1452 3.87426 0.0 
5.04007 4.02119 0.0 
3.9973 4.00729 0.0 
13.2653 2.91651 0.0 
4.00756 4.02287 0.0 
4.72909 3.98572 0.0 
4.23103 3.92099 0.0 
4.17857 3.91238 0.0 
4.79102 4.05549 0.0 
4.06783 4.06315 0.0 
4.89721 3.94678 0.0 
7.23778 1.68811 0.0 
3.99093 4.00808 0.0 
4.86522 3.99192 0.0 
4.10608 4.02928 0.0 
3.9815 3.96956 0.0 
4.50985 7.40044 0.0 
3.92328 3.73616 0.0 
4.15942 4.03647 0.0 
4.76622 4.02246 0.0 
5.05919 4.01855 0.0 
2.15923 7.15628 0.0 
4.38441 4.10746 0.0 
3.84277 3.97325 0.0 
4.76942 3.98826 0.0 
5.0468 2.13587 0.0 
7.18887 6.80823 0.0 
1.24078 0.550265 0.0 
9.10545 7.45594 0.0 
2.38032 0.204862 0.0 
4.01517 4.03055 0.0 
3.99882 3.99972 0.0 
4.83686 3.44886 0.0 
4.62411 4.05372 0.0 
3.99908 3.98836 0.0 
4.15255 2.00511 0.0 
4.1198 4.05331 0.0 
3.99197 3.99669 0.0 
4.1938 4.04426 0.0 
4.21507 3.9482 0.0 
4.23767 4.06747 0.0 
4.97222 4.02124 0.0 
4.09925 3.9694 0.0 
4.10258 3.97183 0.0 
4.69105 3.98385 0.0 
0.922815 3.77166 0.0 
11.9473 3.59927 0.0 
5.1327 4.04445 0.0 
4.01759 3.99821 0.0 
4.13669 4.04946 0.0 
4.87731 4.02231 0.0 
4.01026 3.99982 0.0 
4.2762 3.72488 0.0 
3.9901 3.98452 0.0 
4.97439 3.96659 0.0 
4.35606 3.96951 0.0 
4.16988 3.97669 0.0 
4.83902 4.02812 0.0 
11.9657 7.57741 0.0 
4.03492 3.96665 0.0 
4.1797 4.07872 0.0 
4.57912 4.03061 0.0 
3.99899 4.01393 0.0 
4.71259 3.97492 0.0 
4.67941 4.01821 0.0 
13.2253 0 0.0 
4.01577 3.95866 0.0 
9.30616 6.7349 0.0 
4.0927 3.96862 0.0 
4.55379 3.91439 0.0 
9.51686 4.48852 0.0 
5.08198 4.04957 0.0 
5.02947 4.00625 0.0 
4.0014 4.01066 0.0 
6.54837 4.20004 0.0 
4.00288 3.91227 0.0 
4.79501 4.02961 0.0 
3.95123 3.97305 0.0 
4.08711 3.98632 0.0 
4.10444 4.05157 0.0 
2.26118 6.20994 0.0 
4.01254 4.0098 0.0 
3.98048 4.05294 0.0 
4.03263 3.9819 0.0 
4.13386 4.04638 0.0 
3.98816 4.01224 0.0 
4.21852 4.08078 0.0 
13.5339 3.50077 0.0 
0.833891 1.27417 0.0 
3.99752 4.02893 0.0 
4.01884 3.99521 0.0 
4.06739 4.08694 0.0 
3.98628 3.99582 0.0 
4.72738 4.04754 0.0 
4.16423 4.05989 0.0 
4.57479 4.08961 0.0 
4.05929 4.01962 0.0 
4.0176 3.97351 0.0 
4.38594 3.97185 0.0 
7.69958 4.28684 0.0 
9.55669 5.91713 0.0 
4.00774 3.99043 0.0 
4.05471 3.96974 0.0 
4.3171 4.12404 0.0 
4.53804 3.97608 0.0 
3.93549 3.94275 0.0 
4.06776 3.79218 0.0 
4.16391 3.96777 0.0 
5.10311 4.0306 0.0 
4.03555 4.04122 0.0 
4.00618 4.01823 0.0 
4.00357 4.03077 0.0 
3.98198 3.97396 0.0 
4.04716 4.01881 0.0 
4.12856 3.96835 0.0 
4.18359 4.0716 0.0 
4.44484 3.97244 0.0 
3.86335 3.90224 0.0 
4.02495 4.02882 0.0 
4.05644 3.97561 0.0 
4.75751 3.98632 0.0 
3.9961 4.02386 0.0 
5.18938 4.0003 0.0 
4.05142 4.01968 0.0 
4.01768 3.98933 0.0 
5.18793 4.05304 0.0 
6.22933 0.792451 0.0 
3.98111 4.00805 0.0 
4.31769 3.11794 0.0 
3.99352 3.97666 0.0 
0.747562 5.69493 0.0 
4.04762 4.09268 0.0 
4.50704 4.0564 0.0 
5.22095 7.48607 0.0 
4.73854 4.0558 0.0 
3.98586 3.96653 0.0 
5.02032 4.0056 0.0 
11.3109 3.9311 0.0 
4.00316 4.00723 0.0 
4.00359 4.03909 0.0 
4.84751 4.02611 0.0 
4.04638 4.02867 0.0 
4.02402 4.04636 0.0 
4.572 4.02611 0.0 
0.847225 3.49236 0.0 
4.06133 4.06985 0.0 
5.04267 4.00787 0.0 
3.99417 4.04189 0.0 
7.6181 7.09785 0.0 
4.71441 7.15979 0.0 
3.99997 3.99241 0.0 
4.41092 4.08744 0.0 
4.221 4.05846 0.0 
3.98918 4.03714 0.0 
6.02554 0.627646 0.0 
4.01059 4.0357 0.0 
4.221 4.08678 0.0 
4.27012 4.05517 0.0 
4.13581 4.0815 0.0 
4.00056 4.04248 0.0 
4.00818 4.013 0.0 
2.48135 1.40934 0.0 
3.9896 4.00463 0.0 
4.37101 4.06811 0.0 
3.98613 3.98439 0.0 
11.7169 4.54401 0.0 
4.00273 4.04763 0.0 
4.02428 4.00868 0.0 
4.09297 4.04838 0.0 
4.31397 3.96848 0.0 
4.55139 4.06952 0.0 
4.41724 3.97146 0.0 
4.99702 4.01381 0.0 
3.98643 3.99986 0.0 
4.56409 3.94817 0.0 
4.50874 3.96329 0.0 
3.99581 3.98523 0.0 
11.162 5.5246 0.0 
4.08476 4.08 0.0 
3.98481 4.00073 0.0 
3.97761 4.0047 0.0 
8.39153 6.28241 0.0 
4.00097 4.00279 0.0 
4.32424 4.07 0.0 
4.11077 4.06077 0.0 
3.98558 4.00796 0.0 
4.05624 3.90637 0.0 
4.00396 3.99259 0.0 
4.54802 4.06044 0.0 
14 6.70716 0.0 
1.00188 2.56354 0.0 
4.00111 4.00203 0.0 
4.77318 3.96588 0.0 
4.59696 4.06365 0.0 
9.04276 5.96039 0.0 
4.07076 4.03121 0.0 
4.22872 4.06781 0.0 
3.99705 4.04765 0.0 
5.00029 3.98416 0.0 
8.20853 3.96723 0.0 
4.27037 4.11663 0.0 
2.51481 7.76207 0.0 
6.41561 3.89069 0.0 
4.20761 3.96656 0.0 
4.05927 4.01126 0.0 
4.02241 4.04141 0.0 
3.9487 4.03134 0.0 
4.02972 4.05235 0.0 
4.02288 3.97596 0.0 
4.01777 4.04818 0.0 
3.99441 4.00023 0.0 
3.80057 4.10916 0.0 
4.0266 3.96232 0.0 
4.17637 4.05093 0.0 
4.10695 3.94953 0.0 
13.0064 4.46872 0.0 
8.1459 5.49937 0.0 
4.28117 3.92206 0.0 
4.03778 3.99834 0.0 
4.00064 4.00115 0.0 
4.03887 4.03146 0.0 
2.26452 4.22301 0.0 
4.27242 3.94793 0.0 
4.98817 4.01929 0.0 
3.95357 4.06538 0.0 
12.2374 6.2727 0.0 
4.10175 3.95894 0.0 
4.22117 4.07113 0.0 
4.53392 4.03039 0.0 
4.31834 3.97012 0.0 
4.00572 3.98505 0.0 
4.09476 4.08011 0.0 
4.80861 4.03224 0.0 
4.89223 3.99308 0.0 
3.99904 3.97967 0.0 
3.94862 4.04213 0.0 
5.03379 4.02602 0.0 
3.83045 4.07492 0.0 
3.98756 3.90043 0.0 
5.00832 3.99845 0.0 
4.30078 4.07442 0.0 
6.61761 4.00249 0.0 
4.39396 4.06891 0.0 
8.94038 7.70202 0.0 
2.33056 5.57699 0.0 
4.08366 3.86716 0.0 
1.19147 2.31655 0.0 
4.38666 3.96973 0.0 
5.17999 4.20915 0.0 
10.8478 4.42307 0.0 
5.00794 4.01633 0.0 
3.97614 4.01755 0.0 
4.79747 1.7408 0.0 
5.46984 4.17168 0.0 
4.09602 3.97761 0.0 
9.15388 3.83278 0.0 
3.26803 4.20075 0.0 
4.05996 4.02956 0.0 
6.57902 3.18132 0.0 
4.07218 4.06206 0.0 
4.02816 3.91832 0.0 
8.98125 6.17249 0.0 
4.75151 3.81032 0.0 
4.33335 4.06812 0.0 
4.12852 4.06229 0.0 
5.02611 4.00685 0.0 
4.00124 3.92762 0.0 
4.56492 4.0587 0.0 
10.7084 2.37312 0.0 
4.31716 4.07156 0.0 
4.00614 4.06086 0.0 
4.09629 4.05145 0.0 
4.85463 4.25252 0.0 
4.43566 3.9733 0.0 
3.99735 4.00608 0.0 
4.03831 3.95277 0.0 
4.17041 4.08184 0.0 
4.28981 4.11298 0.0 
4.3231 4.06066 0.0 
4.12644 3.96842 0.0 
10.9853 0.303808 0.0 
4.01978 4.02634 0.0 
4.55134 4.07685 0.0 
4.01621 3.98478 0.0 
4.713 3.98463 0.0 
4.09119 3.91804 0.0 
3.99511 3.99395 0.0 
4.50074 3.96676 0.0 
4.14347 4.06123 0.0 
5.01169 4.00049 0.0 
4.3592 4.09122 0.0 
3.99686 4.00472 0.0 
4.98754 4.00406 0.0 
5.95756 4.13237 0.0 
4.03002 3.7635 0.0 
3.97954 4.04522 0.0 
13.4854 0 0.0 
3.98276 4.03655 0.0 
3.97716 3.98171 0.0 
3.98686 4.01708 0.0 
5.00841 3.97606 0.0 
4.99901 3.99971 0.0 
4.5699 3.97817 0.0 
4.04122 3.94064 0.0 
4.096 3.95606 0.0 
4.79882 4.03367 0.0 
[...]
<PointData>
  <DataArray type = "Float64" Name="Vitesse" NumberOfComponents="3" format="ascii">
1 0 0.0 
1.0073 0 0.0 
1.0059 0 0.0 
1 0 0.0 
0.441087 0.00457999 0.0 
1.00881 0.00030402 0.0 
0.999968 0.000644229 0.0 
0.0415723 -0.00398056 0.0 
0.0464788 0.000577419 0.0 
0.0200554 0.0344812 0.0 
1.05809 0.00280389 0.0 
0.00459223 0.000786954 0.0 
0.246374 -0.21336 0.0 
0.0626278 -0.00772956 0.0 
1.05069 -0.185248 0.0 
0.367887 0.0466993 0.0 
0.869834 -0.262177 0.0 
0.239989 0.00526606 0.0 
0.0085061 8.43848e-05 0.0 
0.992111 -0.0213524 0.0 
0 0 0.0 
0.859233 0.221777 0.0 
0 0 0.0 
1.0094 -0.00168362 0.0 
0.319122 0.0613382 0.0 
0.000148299 1.87598e-05 0.0 
0 0 0.0 
0.836944 0.359989 0.0 
1.00174 0 0.0 
0 0 0.0 
1.60741e-18 -5.23752e-19 0.0 
0 0 0.0 
0.563562 -0.0375718 0.0 
0.0269805 0.0009496 0.0 
0.590354 -0.228645 0.0 
0.0597885 -0.0182947 0.0 
0 0 0.0 
0.743749 -0.0497421 0.0 
0.0604933 0.0151039 0.0 
0.86944 0.348543 0.0 
0 0 0.0 
1.08906 -0.142729 0.0 
0.125787 0.0173781 0.0 
1.77235e-14 -4.0497e-16 0.0 
0.924719 -0.302439 0.0 
1.00005 -0.000254632 0.0 
0.286438 0.0617987 0.0 
0.00173511 0.000203789 0.0 
0.00543325 0.000114612 0.0 
0.00168931 -0.000527755 0.0 
0.00720941 0.000154765 0.0 
0.276744 -0.0319355 0.0 
0.000116224 7.33697e-06 0.0 
0.24715 0.00911442 0.0 
1.02069 -0.0781695 0.0 
1.00691 -9.43789e-05 0.0 
1.00738 -0.000570089 0.0 
1.01021 -0.000493149 0.0 
0.670755 -0.0827634 0.0 
0 0 0.0 
0.656704 0.0241019 0.0 
0.161504 0.167979 0.0 
0.0632045 0.00307619 0.0 
0.192614 -0.293929 0.0 
1.00021 -0.00126703 0.0 
0.871443 0.0293243 0.0 
0.0161933 -0.00900807 0.0 
1.00695 -0.00162363 0.0 
0.00956551 0.00127303 0.0 
1.00798 0 0.0 
0.160312 0.0417243 0.0 
0.00458317 -0.000532444 0.0 
0.0774623 -0.00690326 0.0 
0.146218 -0.00486199 0.0 
1.00185 0.107853 0.0 
0.381736 -0.0253392 0.0 
0.592081 0.0179334 0.0 
1.00742 -0.0002352 0.0 
3.48083e-290 1.34552e-291 0.0 
0.0616557 0.00256743 0.0 
0.361902 -0.00536613 0.0 
0.0650795 0.0140958 0.0 
0.609469 0.16171 0.0 
0.133516 -0.0764158 0.0 
1.10981 0.16328 0.0 
0.197876 -0.0265099 0.0 
0.999575 0.00116791 0.0 
1.07319e-07 -4.32104e-09 0.0 
0.00500156 0.000374091 0.0 
1.18526e-82 1.97796e-83 0.0 
-2.6793e-176 -3.79625e-177 0.0 
1.00942 -0.00034999 0.0 
0.219549 0.121121 0.0 
1.0082 -0.00110135 0.0 
1.00805 4.46686e-05 0.0 
0.733072 0.334792 0.0 
0.582922 0.0834455 0.0 
-1.30975e-234 -3.40758e-236 0.0 
1.00575 -0.00366524 0.0 
0.999949 0.00202806 0.0 
9.44032e-08 1.35916e-08 0.0 
0.702203 0.012416 0.0 
0.538751 -0.32968 0.0 
1.00803 -0.00993503 0.0 
0.858202 -0.0512623 0.0 
0.687657 -0.154665 0.0 
0.296784 -0.0272761 0.0 
0 0 0.0 
0.340283 0.107899 0.0 
0.920436 0.196947 0.0 
1.03681 -0.103424 0.0 
0.027121 -0.0630051 0.0 
0.0429359 0.0066773 0.0 
1.00662 0 0.0 
0.331679 0.175741 0.0 
0.0108019 0.000209917 0.0 
1 0 0.0 
0.871743 -0.0444094 0.0 
0.531898 0.0958246 0.0 
0.941697 0.0329099 0.0 
0.106432 0.0188341 0.0 
0.0726711 0.0140819 0.0 
-4.65862e-32 3.98824e-33 0.0 
0.00297158 -0.000190392 0.0 
1.04966 -0.130075 0.0 
0.21719 0.217488 0.0 
3.67178e-190 4.59804e-191 0.0 
0.11772 -0.0114932 0.0 
1.00773 -0.00213879 0.0 
1.17135e-147 -8.41366e-150 0.0 
1.00862 -0.000929468 0.0 
0.114792 0.00535886 0.0 
0.227468 -0.076712 0.0 
0.283011 0.0459421 0.0 
0.618694 0.370013 0.0 
1.00667 -0.000313772 0.0 
0.685667 -0.00608605 0.0 
0.0994787 0.0119889 0.0 
1.0141 0.0160086 0.0 
0 0 0.0 
0 0 0.0 
0.0181242 2.99876e-06 0.0 
0.322917 -0.202561 0.0 
0.915067 -0.131129 0.0 
0.0230228 -0.00455866 0.0 
1.00978 0.000755091 0.0 
0.0631305 -0.0177087 0.0 
1.00873 -0.000699795 0.0 
0.00698245 0.000709434 0.0 
0.609106 -0.0164831 0.0 
0.950806 0.279915 0.0 
0.993295 0.00979967 0.0 
0.646277 0.182128 0.0 
0.72364 0.121295 0.0 
0.838884 0.0480368 0.0 
0.721178 0.15602 0.0 
1.04674 0.0113275 0.0 
0.198252 0.178778 0.0 
0.76195 0.32781 0.0 
0.999374 -0.000586065 0.0 
0.791483 -0.0106267 0.0 
0.444139 0.0460708 0.0 
-2.48563e-68 -1.52037e-69 0.0 
1.04798 -0.0725299 0.0 
0.0110575 0.000600593 0.0 
0.0227759 0.00184726 0.0 
0.999983 0.000661798 0.0 
0.8838 0.0021101 0.0 
0.0789064 -0.0144563 0.0 
0.155744 0.115653 0.0 
1.00909 0.000459737 0.0 
0.472703 0.330589 0.0 
0.00503524 0.000274326 0.0 
0.946083 -0.0513752 0.0 
1.07356 -0.0951192 0.0 
0.14341 -0.0145028 0.0 
0.900923 0.277839 0.0 
0.469165 0.0183275 0.0 
1.00973 0.000613894 0.0 
0.337964 0.0652694 0.0 
0.00704222 0.000607339 0.0 
0 0 0.0 
0.74719 -0.262465 0.0 
1.00854 0.0012901 0.0 
0.981201 -0.0740487 0.0 
1e-307 1e-307 0.0 
1.13476e-116 -4.36461e-118 0.0 
0.0875904 -0.00945982 0.0 
1.00202 0.00172423 0.0 
0.774504 0.0209348 0.0 
0.887624 -0.0262264 0.0 
4.32871e-05 2.302e-06 0.0 
1.01295 -0.00311692 0.0 
1.00972 -0.00100988 0.0 
1.0005 -0.000464829 0.0 
1.00779 -0.000315486 0.0 
1.00202 -0.000374237 0.0 
0.600327 0.337507 0.0 
0.049209 -0.116851 0.0 
1.03628 -0.00103951 0.0 
0.00452048 -0.000346883 0.0 
0.479458 -0.446029 0.0 
1.00873 -0.00642248 0.0 
0.081427 0.0146037 0.0 
0.339101 -0.245236 0.0 
-9.34506e-297 -1.23881e-297 0.0 
0.460808 -0.0132248 0.0 
0.0654746 0.0032435 0.0 
0.044273 -0.0069772 0.0 
0.0416466 -0.00348959 0.0 
1.38194e-112 -1.3244e-113 0.0 
0.00507082 0.000407192 0.0 
0.999515 2.4701e-05 0.0 
1.01151 -0.00113908 0.0 
0.256317 -0.0228648 0.0 
0 0 0.0 
4.15491e-29 7.17498e-30 0.0 
0.00232473 -0.000375134 0.0 
0 0 0.0 
1.05979 -0.0521827 0.0 
0.594955 -0.347086 0.0 
0.301892 0.0182973 0.0 
0.0149262 0.000717383 0.0 
2.52543e-142 9.69349e-144 0.0 
0.00292467 -0.000292028 0.0 
1.00661 -0.000122909 0.0 
0.770381 -0.234384 0.0 
0.638401 0.0898656 0.0 
3.95001e-216 1.84723e-217 0.0 
0.312606 0.266989 0.0 
0.106474 0.00490841 0.0 
0 0 0.0 
1.00748 0 0.0 
0.944204 -0.359867 0.0 
1.00811 -0.000681486 0.0 
0.101581 -0.00969275 0.0 
0.7979 0.00786379 0.0 
1.00878 -0.00121508 0.0 
0.261283 -0.029163 0.0 
0.0535041 -0.00212411 0.0 
0.144267 0.167793 0.0 
0.99451 -0.00756897 0.0 
0.95061 -0.206741 0.0 
7.89444e-76 -8.0777e-77 0.0 
0.769708 -0.123521 0.0 
0 0 0.0 
0.144461 0.0289341 0.0 
1.00164 0.00392853 0.0 
0 0 0.0 
0.759679 0.198738 0.0 
9.62865e-28 -2.7896e-28 0.0 
0 0 0.0 
0.433125 0.110465 0.0 
0.532179 0.0570973 0.0 
1.01247 0.000115826 0.0 
1.00016 -0.000647563 0.0 
0.606047 0.314785 0.0 
0 0 0.0 
1.00305 0.276928 0.0 
0.460437 -0.192596 0.0 
0.0361767 -0.00379902 0.0 
0.0576005 0.00747614 0.0 
0.419345 -0.0190321 0.0 
0 0 0.0 
0.763473 -0.332118 0.0 
3.17589e-14 8.18409e-16 0.0 
1.00762 -0.00373906 0.0 
1.0087 -0.00096234 0.0 
0 0 0.0 
0.335688 -0.0680263 0.0 
1.05003 0.0736834 0.0 
0.0138807 0.000979481 0.0 
0.849901 -0.119557 0.0 
1.02395 -0.106885 0.0 
8.84728e-08 -7.40927e-09 0.0 
0.157694 -0.0165797 0.0 
0.661919 0.27804 0.0 
0.322987 0.261659 0.0 
0.638929 0.360432 0.0 
0.716292 -0.267231 0.0 
0 0 0.0 
0.0219255 -0.000706451 0.0 
0.39506 0.0492009 0.0 
0.0128835 0.000813628 0.0 
0.911217 -0.0639922 0.0 
0.306249 0.164379 0.0 
9.6062e-103 -1.17193e-103 0.0 
0.0115213 0.000583684 0.0 
0.540537 0.299418 0.0 
0.192864 0.00575843 0.0 
0 0 0.0 
1.15566e-166 -1.40987e-167 0.0 
0.34422 -0.0255247 0.0 
1.00914 -0.00015546 0.0 
0.503416 0.00920596 0.0 
1.02146 -0.0189422 0.0 
0.709222 -0.378397 0.0 
1.00002 0.00107936 0.0 
0.967654 0.265418 0.0 
1.60474e-47 6.80098e-49 0.0 
1.00955 0.00052101 0.0 
0.109418 -0.0105723 0.0 
0.772217 -0.286831 0.0 
0.042638 -0.00349267 0.0 
0.83197 0.00159249 0.0 
7.80346e-149 3.84488e-149 0.0 
0.71398 0.336459 0.0 
8.51888e-15 -1.05043e-15 0.0 
-2.67389e-262 -9.52025e-263 0.0 
0.818323 0.365655 0.0 
2.20838e-169 4.60555e-170 0.0 
0.999658 -0.000237637 0.0 
0.96932 0.303483 0.0 
0.0662591 -0.0018003 0.0 
0.710881 0.270963 0.0 
1.00902 -0.000735875 0.0 
1.00932 0.00155881 0.0 
0.276071 -0.347248 0.0 
0.377408 -0.00115586 0.0 
1.12359e-125 -1.94165e-126 0.0 
0.675791 0.241332 0.0 
1.00893 -0.000243267 0.0 
0.706779 0.375507 0.0 
0.682729 0.0754939 0.0 
-9.27793e-262 -7.10826e-263 0.0 
0.909597 0.179787 0.0 
0.726818 0.308487 0.0 
4.38843e-121 2.16224e-121 0.0 
1.00192 -0.00279057 0.0 
0.344757 -0.0248756 0.0 
9.88438e-06 1.50436e-07 0.0 
0.608274 -0.292533 0.0 
1.01173 7.58916e-05 0.0 
0.761636 0.305333 0.0 
0 0 0.0 
0.118757 0.0322757 0.0 
0.0146442 0.000877996 0.0 
0.120088 -0.00762121 0.0 
0.0136729 0.000150093 0.0 
0.0330254 -0.0117359 0.0 
0.423967 -0.124213 0.0 
0.378168 0.0104937 0.0 
0.161203 0.00566992 0.0 
0.579518 -0.434045 0.0 
1.00856 -0.000677879 0.0 
1.01087 0.270764 0.0 
0.448218 -0.100867 0.0 
0.540549 -0.0344712 0.0 
1.009 -0.00123864 0.0 
-1.88317e-196 -2.02336e-196 0.0 
0.0265613 -0.000305009 0.0 
0.495543 0.105249 0.0 
0.439047 0.0245264 0.0 
1.04058 -0.197971 0.0 
0 0 0.0 
0.00505514 -0.000373588 0.0 
1.00666 -0.00038225 0.0 
0.999827 -0.0010088 0.0 
-1.56678e-196 -1.64601e-196 0.0 
0.226974 0.00973483 0.0 
0.0820536 -0.00628403 0.0 
1.00886 -0.0011666 0.0 
0 0 0.0 
0.0964206 0.00693703 0.0 
0.748203 0.277717 0.0 
0.149067 0.0173111 0.0 
0.726451 0.00223397 0.0 
1.04227 0.0989701 0.0 
1.00287 0.000563602 0.0 
0.874584 0.00664914 0.0 
0.0231252 -5.14395e-05 0.0 
-1.27905e-265 -3.35249e-267 0.0 
0.768346 0.366543 0.0 
0.746536 0.0632707 0.0 
0.864289 0.354415 0.0 
0.535308 -0.200222 0.0 
0.81436 0.35673 0.0 
0.20879 -0.157729 0.0 
0.921155 0.0364215 0.0 
0.942846 -0.334386 0.0 
-1.71878e-149 -2.69546e-150 0.0 
0.745552 -0.0902388 0.0 
1.01078 -0.000411995 0.0 
1.00979 -0.00196145 0.0 
0.869043 -0.028244 0.0 
0 0 0.0 
-9.22445e-204 -6.36363e-204 0.0 
0.0620904 0.0243781 0.0 
0.995774 0.0020621 0.0 
0.408968 -0.00317347 0.0 
0.0459276 -0.00984922 0.0 
0.810083 0.127121 0.0 
1.00753 -0.000488936 0.0 
0.454121 -0.0486692 0.0 
0.228626 0.0212245 0.0 
2.1353e-210 9.98513e-212 0.0 
5.53377e-15 2.04579e-16 0.0 
0.496985 -0.353749 0.0 
1.00682 0.25614 0.0 
0.00254618 -0.000245264 0.0 
0.00779866 0.000562798 0.0 
0.6974 -0.448882 0.0 
0.767296 0.0873596 0.0 
0.0922477 -0.0186854 0.0 
0.902376 0.0324332 0.0 
0.94084 -0.176331 0.0 
0.03952 0.00649813 0.0 
0.157432 0.00548863 0.0 
0.584463 -0.00147933 0.0 
0.0149087 -0.000743739 0.0 
1.00783 -0.00018187 0.0 
1.00043 0.00524521 0.0 
1.04916 -0.145755 0.0 
0.999935 -0.00134198 0.0 
0.0251057 0.000938679 0.0 
1.02882 -0.0381336 0.0 
1.01132 -0.00108484 0.0 
0.0438934 -0.0168518 0.0 
0.590452 0.0803729 0.0 
1.01045 -0.00339607 0.0 
0.985205 -0.0294919 0.0 
-5.16634e-148 4.50948e-149 0.0 
0.942992 -0.000295949 0.0 
0.981318 0.00743093 0.0 
0 0 0.0 
1.01085 0.00326218 0.0 
0.860623 0.257395 0.0 
0.996892 -0.229028 0.0 
1.00871 -0.00106808 0.0 
1.05863 0.00654371 0.0 
3.85181e-55 5.32011e-57 0.0 
0.402595 0.0747969 0.0 
0.0487877 -0.00347663 0.0 
0.933264 -0.234619 0.0 
0.00064267 -2.33815e-05 0.0 
1.0091 0.000353831 0.0 
0.0697137 0.00194297 0.0 
0.822193 0.283932 0.0 
0.235166 0.0600129 0.0 
1.07131 -0.0276081 0.0 
1.758e-09 2.15716e-10 0.0 
0.126285 0.0779139 0.0 
1.00962 -0.294968 0.0 
0.76562 0.118903 0.0 
0.982143 0.0795906 0.0 
0 0 0.0 
0.0205732 9.92392e-05 0.0 
1.00793 4.7694e-05 0.0 
0.322184 0.166817 0.0 
0.221353 -0.0120526 0.0 
4.05952e-08 -1.3198e-08 0.0 
0.00747059 0.00051319 0.0 
1.08592 -0.180468 0.0 
0.334802 -0.349619 0.0 
0.112223 0.00413392 0.0 
0.244587 0.0376661 0.0 
0.0389208 0.00238529 0.0 
0.491474 0.0109876 0.0 
0.118836 0.02768 0.0 
0.00193635 -0.000296871 0.0 
0.898798 -0.0131013 0.0 
1.00783 -0.095833 0.0 
0.726834 0.191133 0.0 
1.00742 0 0.0 
0.67755 0.19906 0.0 
0.665384 -0.216285 0.0 
0.500292 0.15175 0.0 
0.225959 0.0234365 0.0 
0 0 0.0 
0.00599879 0.000782354 0.0 
1.03589 -0.273183 0.0 
0.594759 -0.0751808 0.0 
0.0028553 -0.000537834 0.0 
0.53658 -0.0627286 0.0 
0.322762 0.107959 0.0 
1.09269 -0.0937026 0.0 
0.0112877 0.000918065 0.0 
0 0 0.0 
-1.73256e-225 -4.5412e-227 0.0 
1.00912 0.000111302 0.0 
1.00823 -0.0446197 0.0 
0.0239785 0.000260852 0.0 
-1.59358e-37 1.42488e-38 0.0 
0.689252 0.00338493 0.0 
4.11213e-158 -3.09515e-159 0.0 
0 0 0.0 
0.0237414 0.00478243 0.0 
3.40622e-170 4.28364e-171 0.0 
0.879543 0.20012 0.0 
0.692401 -0.288598 0.0 
0.826522 -0.361246 0.0 
1.00913 -0.00157732 0.0 
0.846162 -0.0288909 0.0 
0 0 0.0 
0.960123 0.00386342 0.0 
0.0349028 -0.000728898 0.0 
0.203812 0.00452348 0.0 
1.1279 0.0490384 0.0 
1.02687e-55 4.15648e-57 0.0 
0.117842 -0.0216634 0.0 
1.00003 0.000517438 0.0 
0.745442 -0.428733 0.0 
0.185896 -0.0410453 0.0 
1.00159 0.00190104 0.0 
0.00568049 0.000405978 0.0 
0.0191888 -0.0105486 0.0 
0.819611 -0.24524 0.0 
0.238627 -0.255108 0.0 
1.01895 -0.261452 0.0 
0.0258494 0.00664332 0.0 
0.0295225 0.00102097 0.0 
0.22152 0.0450002 0.0 
0.0332052 -0.0150973 0.0 
0.55637 -0.0194446 0.0 
0.0121694 -0.000883931 0.0 
0.802356 -0.352277 0.0 
0.00973452 0.000232142 0.0 
0.0126826 -0.000949616 0.0 
0.347683 0.0877573 0.0 
0.107395 0.0159649 0.0 
0.166248 0.0628241 0.0 
0.00583878 0.000214009 0.0 
0.644931 -0.00936552 0.0 
0.0105862 0.000807995 0.0 
1.00787 6.79858e-05 0.0 
0 0 0.0 
1.00964 0.000263862 0.0 
0.0184866 0.000483332 0.0 
1.09253 0.0115172 0.0 
1.00858 0.000172486 0.0 
1.00051 0.000590923 0.0 
0.0210215 -0.0102535 0.0 
1.01021 0.00138486 0.0 
-1.01691e-31 2.66867e-34 0.0 
1.00947 -0.00149607 0.0 
0 0 0.0 
0.595449 -0.0259086 0.0 
1.00005 0.00162325 0.0 
0.851429 0.16036 0.0 
0.968513 -0.341727 0.0 
0.241367 0.0269571 0.0 
0.0311941 0.00212757 0.0 
0.0283834 -0.000263639 0.0 
0.229228 -0.0352376 0.0 
0.0150532 8.45168e-05 0.0 
0.849816 0.330563 0.0 
3.45646e-29 1.86854e-30 0.0 
6.12386e-108 3.18971e-108 0.0 
1.00921 0.000245089 0.0 
0.974722 0.175631 0.0 
0.839178 0.349264 0.0 
0.561377 -0.208131 0.0 
0.80612 0.165519 0.0 
0.0426426 0.00332734 0.0 
0.00501221 -5.02879e-06 0.0 
0.316086 -0.108485 0.0 
1.01104 -0.00134684 0.0 
0.243742 0.238106 0.0 
1.00001 -0.000532852 0.0 
0.00568587 0.000372981 0.0 
1.00263 -0.00303484 0.0 
0.616163 -0.116917 0.0 
0.987555 -0.00588288 0.0 
0.0258095 -0.000505843 0.0 
0.563591 0.0548579 0.0 
0.836656 0.0254404 0.0 
0.995113 -0.0241825 0.0 
0.158342 -0.251955 0.0 
0.0507925 -0.00284192 0.0 
0.0429669 0.0636629 0.0 
1.13043e-17 3.59413e-19 0.0 
0.031287 0.00408587 0.0 
0 0 0.0 
0.673138 0.0442685 0.0 
1.00897 0.000296874 0.0 
0 0 0.0 
0.655826 0.00872173 0.0 
0.416177 -0.0389259 0.0 
0.843455 0.34209 0.0 
0.0363802 -0.0103559 0.0 
0.316545 -0.027465 0.0 
0.353839 0.0903219 0.0 
0.742471 0.302044 0.0 
0.619252 0.0107312 0.0 
0.9025 -0.138163 0.0 
0.0687559 -0.004703 0.0 
0.00200371 -0.000315457 0.0 
0.00251382 -0.000394674 0.0 
1.00803 -0.000224974 0.0 
0.07604 0.0155841 0.0 
0.859314 -0.402579 0.0 
0.29052 0.0583615 0.0 
1.00802 7.59506e-05 0.0 
1.00859 0.000539111 0.0 
1.00974 0.00373995 0.0 
0.0284649 -0.008704 0.0 
1.01206 -0.00198555 0.0 
0.677951 -0.367615 0.0 
1.00492 0.00113459 0.0 
1.16698e-75 -2.0732e-77 0.0 
0.593579 -0.143422 0.0 
0.218453 0.0198834 0.0 
0.852248 -0.0730159 0.0 
0.387145 -0.0128121 0.0 
0.190798 -0.0215792 0.0 
1.00924 0.000225209 0.0 
0.0207287 -0.00173598 0.0 
1.00054 0.00428723 0.0 
0.0714165 0.00623338 0.0 
0 0 0.0 
0.999949 -0.000486367 0.0 
0.0489945 0.00317811 0.0 
2.19283e-96 -4.49639e-97 0.0 
1.00991 0.000128833 0.0 
1.00979 0.000341297 0.0 
0.311649 -0.262373 0.0 
0 0 0.0 
1.00498 -0.00288383 0.0 
0.709188 -0.146102 0.0 
0.470153 -0.0258061 0.0 
1.00865 -0.000971145 0.0 
0.0371646 -0.0083491 0.0 
0.0468827 0.000506372 0.0 
0.120115 0.0432979 0.0 
1.00921 0.031483 0.0 
0.152055 0.00830054 0.0 
0.0188738 0.000825751 0.0 
1.00235 -0.00602983 0.0 
3.75595e-174 7.83299e-175 0.0 
0.0341538 0.00773633 0.0 
0.266789 -0.101966 0.0 
0.647654 -0.0461535 0.0 
0 0 0.0 
0.282274 -0.0316976 0.0 
0.494602 0.235596 0.0 
0.990193 0.00242827 0.0 
0.632242 0.28546 0.0 
0.385196 -0.0471423 0.0 
1.0088 -5.70735e-05 0.0 
0.884267 -0.0144329 0.0 
0.0218779 -0.00020388 0.0 
0.00665387 -0.000352972 0.0 
1.01051 0.00756156 0.0 
0.998866 -0.000150281 0.0 
0 0 0.0 
0.175929 0.0639509 0.0 
0 0 0.0 
3.44273e-06 3.23592e-07 0.0 
0.00587557 0.000560309 0.0 
0.382212 0.197674 0.0 
0.0234499 -0.00444966 0.0 
0.386054 -0.130347 0.0 
0.0228738 -0.00103847 0.0 
0.0133317 -0.0045796 0.0 
0 0 0.0 
0.0610924 -0.00168427 0.0 
0.857746 -0.00439654 0.0 
1.00818 -0.000430118 0.0 
0.191492 0.00969269 0.0 
1.00998 0.00072703 0.0 
1.00388 0.00268445 0.0 
0.0408976 -0.000203022 0.0 
0.0131386 0.000757862 0.0 
0.482225 -0.0215627 0.0 
0.906456 -0.39148 0.0 
1.00756 0.00021227 0.0 
0.838357 -0.331987 0.0 
0.120912 0.0110535 0.0 
1.00748 5.65843e-05 0.0 
1.00692 -0.00022235 0.0 
1.01511 0.00246775 0.0 
0.101712 0.0363729 0.0 
0.784039 -0.277348 0.0 
0.00667342 0.000673152 0.0 
0.0314652 -0.0105545 0.0 
1.54794e-188 8.3004e-190 0.0 
0.0850993 0.00197527 0.0 
0.029267 0.00911937 0.0 
0.999923 -0.151104 0.0 
2.57393e-13 -4.18709e-14 0.0 
-2.32315e-265 -6.0892e-267 0.0 
0.0634901 -0.0131931 0.0 
0.155489 0.0223424 0.0 
5.78222e-08 -1.22743e-08 0.0 
8.74948e-216 -5.67135e-217 0.0 
8.35925e-252 6.20889e-253 0.0 
1.08819 0.110165 0.0 
0.83713 -0.41967 0.0 
-2.40342e-65 -2.68495e-66 0.0 
1.00815 -0.00067923 0.0 
0.836219 -0.418559 0.0 
0.0848654 0.108975 0.0 
0.0482957 -0.0167799 0.0 
0.12992 -0.0154626 0.0 
-2.41147e-36 -2.14669e-37 0.0 
0.142912 -0.120737 0.0 
0.999953 0.00142586 0.0 
0.999615 -0.000485936 0.0 
5.21378e-07 8.17535e-08 0.0 
0.0256 -0.00742245 0.0 
1.02868 -0.143052 0.0 
0.579575 -0.00185487 0.0 
2.03783e-05 2.33783e-06 0.0 
0.999985 -0.000597527 0.0 
0.774941 0.0632464 0.0 
0.571596 0.010981 0.0 
0.653512 -0.353461 0.0 
1.00911 0.000360639 0.0 
0.130673 -0.0200859 0.0 
0.123791 0.0200327 0.0 
1.01392 0.00271587 0.0 
0.165186 -0.00281272 0.0 
0.999907 -0.000718331 0.0 
0.00510272 0.000480502 0.0 
0.910153 -0.0271246 0.0 
1.03771 0.0997344 0.0 
0 0 0.0 
0.516392 -0.0780804 0.0 
0.0770728 -0.00857637 0.0 
1.11952 0.139666 0.0 
1.00425 -0.00414754 0.0 
0.0450173 0.0150572 0.0 
0.535508 -0.030688 0.0 
0.839503 0.147645 0.0 
4.37806e-23 -3.669e-24 0.0 
4.25327e-07 9.43266e-08 0.0 
0.844725 0.0057521 0.0 
1.00847 0.000222557 0.0 
0.0796618 -0.018428 0.0 
1.01052 0.00172521 0.0 
0.567746 -0.0658037 0.0 
0.0900585 0.0179107 0.0 
0.0450199 0.00171601 0.0 
0.814167 0.351395 0.0 
0.0302679 -0.0130655 0.0 
0.999345 0.00255905 0.0 
1.13969e-91 1.1319e-93 0.0 
1.00969 0.00179742 0.0 
0.0474626 -0.000515291 0.0 
1.00024 -0.000621455 0.0 
0.965517 -0.00391007 0.0 
1.00855 0.000244727 0.0 
1.11723 0.0977968 0.0 
0.686711 -0.0635779 0.0 
0.465786 -0.00829858 0.0 
0.27984 0.0778015 0.0 
1.00797 0.000224468 0.0 
0.999209 -0.0015706 0.0 
0 0 0.0 
0.208248 0.0252912 0.0 
0.988847 -0.00118027 0.0 
0.186793 -0.009362 0.0 
0.00031672 2.26236e-05 0.0 
0.0089234 0.000421436 0.0 
0.00244286 -0.000341235 0.0 
0.0964089 0.0158163 0.0 
0.252539 0.137424 0.0 
1.00654 0 0.0 
1.06316e-28 3.02067e-29 0.0 
1.00692 -0.000439793 0.0 
0.0803867 -0.01223 0.0 
0 0 0.0 
1.00905 -0.00129448 0.0 
0.494236 0.00771888 0.0 
1.00815 0.000180374 0.0 
0.700529 -0.0387828 0.0 
0.695512 -0.158681 0.0 
2.36059e-05 3.7672e-06 0.0 
1.00704 -0.000322448 0.0 
0 0 0.0 
0.899516 0.00122266 0.0 
0 0 0.0 
0.0572683 0.00969565 0.0 
1.52116e-209 -1.18711e-210 0.0 
1.00911 -0.00697106 0.0 
0 0 0.0 
0.00727506 0.000479334 0.0 
1.00797 0.00200262 0.0 
0.75553 0.349453 0.0 
0.506707 0.278169 0.0 
0.993583 -0.181792 0.0 
1.05184 -0.0487857 0.0 
0.0736249 0.0157724 0.0 
0.69504 0.066911 0.0 
1.00989 0.00101769 0.0 
0.999687 -0.00198579 0.0 
0.87527 0.32798 0.0 
0.792973 -0.251252 0.0 
1.00232 0.00490168 0.0 
0.696207 -0.338972 0.0 
0.277858 -0.0782123 0.0 
1.10679 0.000456888 0.0 
1.00678 0.00330759 0.0 
1.33771e-91 -5.03998e-93 0.0 
1.00925 -0.000966971 0.0 
1.00838 0.000412118 0.0 
0 0 0.0 
1.00246 -0.000530179 0.0 
1.00027 -0.000840678 0.0 
0.682374 0.00846773 0.0 
1.00846 0.000220856 0.0 
0.947707 -0.00918282 0.0 
1.00835 0.00018842 0.0 
0.780434 -0.323508 0.0 
1.01158 0.000790803 0.0 
0.320107 0.131768 0.0 
1.00934 0.000952494 0.0 
0.0110005 -0.00295488 0.0 
1.00001 -0.000180761 0.0 
0.0884502 -0.0180523 0.0 
0.287087 -0.0284147 0.0 
0.418981 0.0129074 0.0 
0.922413 -0.198423 0.0 
0.345225 0.0169683 0.0 
0.00460626 0.000518337 0.0 
0.767621 -0.417379 0.0 
0.998793 -0.0040622 0.0 
0.0216812 0.00706426 0.0 
1.01044 -0.00269193 0.0 
0.977538 -0.04059 0.0 
0.215241 -0.00590134 0.0 
0.00697787 0.00663407 0.0 