<VTKFile type="UnstructuredGrid" version="0.1" byte_order="LittleEndian">
  <UnstructuredGrid>
    <Piece NumberOfPoints="12718" NumberOfCells="25278">
      <Points>
        <DataArray type = "Float64" NumberOfComponents="3" format="ascii">
0 0 0.0 
14 0 0.0 
14 8 0.0 
0 8 0.0 
5.02315 4.00601 0.0 
4.05604 3.99252 0.0 
0.483697 5.24337 0.0 
4.10761 4.0532 0.0 
4.27598 4.05023 0.0 
3.82001 4.24744 0.0 
10.6752 3.25987 0.0 
4.00072 3.98403 0.0 
4.46766 3.93198 0.0 
12.5949 1.78564 0.0 
4.92394 4.05711 0.0 
5.89776 3.86311 0.0 
4.04218 3.96036 0.0 
4.08492 3.93693 0.0 
3.99951 3.99562 0.0 
4.38095 3.94399 0.0 
0.912073 2.29827 0.0 
4.40041 3.95585 0.0 
4.11871 3.93345 0.0 
4.05477 4.02613 0.0 
4.36723 4.05555 0.0 
4.05422 4.08467 0.0 
8.29677 5.77683 0.0 
5.00004 3.99571 0.0 
4.08429 4.05004 0.0 
4.00922 3.99881 0.0 
4.02803 4.04844 0.0 
3.99619 4.01389 0.0 
4.01927 3.99345 0.0 
4.18615 4.04815 0.0 
4.11094 4.03801 0.0 
4.84218 4.09374 0.0 
4.45467 4.04889 0.0 
3.98196 3.98783 0.0 
5.00749 4.02107 0.0 
4.36023 4.05917 0.0 
5.60758 8 0.0 
4.94936 4.10236 0.0 
4.17846 4.05751 0.0 
5.00322 4.00258 0.0 
4.36544 3.99648 0.0 
5.00166 3.98677 0.0 
4.02423 3.98532 0.0 
4.01658 3.9924 0.0 
4.03403 4.05256 0.0 
5.0409 3.99921 0.0 
4.88264 4.02164 0.0 
4.3612 3.96991 0.0 
4.02996 3.94761 0.0 
3.94101 4.00594 0.0 
4.62262 4.05387 0.0 
6.64229 4.06792 0.0 
4.00705 4.0074 0.0 
6.24681 4.0881 0.0 
11.9472 6.33367 0.0 
13.1041 6.21426 0.0 
10.8833 7.73481 0.0 
14 6.11123 0.0 
3.14077 6.008 0.0 
3.96293 3.99513 0.0 
7.37019 6.1088 0.0 
4.1755 4.05875 0.0 
5.0035 4.00937 0.0 
9.74556 4.28759 0.0 
3.99922 3.99464 0.0 
4.08902 3.97685 0.0 
4.35485 4.07122 0.0 
4.99983 4.00536 0.0 
14 5.21618 0.0 
3.98931 4.01522 0.0 
8.55881 8 0.0 
4.07269 3.46492 0.0 
6.1304 7.04111 0.0 
4.21568 4.07498 0.0 
5.00991 4.10716 0.0 
4.89883 3.99504 0.0 
4.87863 4.01339 0.0 
4.24422 7.49665 0.0 
4.35343 3.94951 0.0 
4.86355 3.98354 0.0 
4.12213 3.94584 0.0 
4.03276 3.93135 0.0 
4.23647 3.95137 0.0 
5.00128 3.99352 0.0 
4.08373 4.05666 0.0 
4.62021 3.95978 0.0 
4.07752 3.92623 0.0 
4.27852 0 0.0 
5.04845 4.04311 0.0 
4.97197 3.99705 0.0 
4.00988 4.0203 0.0 
4.03267 4.02145 0.0 
4.04417 4.11983 0.0 
4.73941 4.02104 0.0 
4.23524 4.06773 0.0 
4.4709 4.06471 0.0 
4.16369 3.96637 0.0 
10.1833 0.248119 0.0 
4.02875 4.04115 0.0 
4.33952 4.07419 0.0 
4.1741 4.07586 0.0 
13.638 6.81876 0.0 
3.7391 1.31631 0.0 
1.26284 5.53443 0.0 
4.04499 4.0381 0.0 
4.33789 4.06922 0.0 
4.01758 4.0605 0.0 
3.91267 2.38613 0.0 
5.01913 4.00381 0.0 
4.04175 3.99348 0.0 
4.95453 3.98271 0.0 
4.5606 4.05882 0.0 
4.73715 3.98539 0.0 
4.12124 3.98374 0.0 
6.41137 3.7725 0.0 
3.96821 4.02728 0.0 
4.06839 3.97335 0.0 
4.73395 4.05274 0.0 
4.99458 4.03862 0.0 
10.143 2.49055 0.0 
4.02244 4.02798 0.0 
4.80496 4.05817 0.0 
0 1.4212 0.0 
4.11377 4.07301 0.0 
4.3905 4.05977 0.0 
9.21984 5.44779 0.0 
4.16239 3.93574 0.0 
5.01331 3.98969 0.0 
4.19165 3.91926 0.0 
4.26478 4.08716 0.0 
5.05415 4.0144 0.0 
1.52193 0 0.0 
4.12613 3.92733 0.0 
4.8376 3.97768 0.0 
5.13359 4.01589 0.0 
8.76519 4.32819 0.0 
4.08696 3.9688 0.0 
5.83812 4.00519 0.0 
4.16056 4.10191 0.0 
4.16991 4.04935 0.0 
4.17721 4.06988 0.0 
4.52179 3.96592 0.0 
3.99252 4.00665 0.0 
4.13257 4.06708 0.0 
4.00943 4.02943 0.0 
4.34241 3.9191 0.0 
4.26056 3.96779 0.0 
4.06521 4.00932 0.0 
4.22235 3.96599 0.0 
4.1809 4.05526 0.0 
4.05784 3.98854 0.0 
5.06886 4.12388 0.0 
4.19057 4.05281 0.0 
4.10081 3.94382 0.0 
4.0274 3.98132 0.0 
4.138 3.96809 0.0 
5.00368 4.02219 0.0 
10.7396 5.64099 0.0 
4.57963 3.97875 0.0 
4.1868 4.12646 0.0 
4.3912 4.06879 0.0 
12.1825 3.17668 0.0 
4.0169 3.98161 0.0 
3.96476 4.03852 0.0 
4.57294 4.05847 0.0 
3.97233 4.04194 0.0 
0.958544 0 0.0 
3.99803 4.00953 0.0 
4.00621 4.04562 0.0 
1.12644 3.34247 0.0 
3.92251 4.00785 0.0 
11.987 1.81334 0.0 
4.0379 3.97231 0.0 
4.62858 3.98104 0.0 
4.03166 4.02703 0.0 
5.90832 7.68969 0.0 
3.89417 4.18031 0.0 
4.11863 4.05829 0.0 
5.04007 4.02119 0.0 
3.55474 3.60315 0.0 
13.2653 2.91651 0.0 
4.00756 4.02287 0.0 
4.42265 4.05058 0.0 
4.23103 3.92099 0.0 
4.98371 4.01321 0.0 
4.79102 4.05549 0.0 
4.0065 4.00449 0.0 
4.07999 4.05154 0.0 
4.03415 4.05635 0.0 
4.1379 4.03142 0.0 
3.99709 3.98344 0.0 
4.10608 4.02928 0.0 
4.91308 3.95535 0.0 
4.43405 4.06816 0.0 
4.50985 7.40044 0.0 
4.02341 4.03456 0.0 
3.9551 4.02675 0.0 
4.74433 4.04093 0.0 
5.05919 4.01855 0.0 
2.15923 7.15628 0.0 
11.8519 7.12482 0.0 
4.36943 3.97072 0.0 
5.19745 3.88865 0.0 
4.14146 3.92894 0.0 
5.0468 2.13587 0.0 
7.18887 6.80823 0.0 
1.24078 0.550265 0.0 
9.10545 7.45594 0.0 
2.38032 0.204862 0.0 
4.03512 4.02863 0.0 
4.03658 3.96299 0.0 
4.01517 4.03055 0.0 
3.99882 3.99972 0.0 
3.9818 4.03131 0.0 
4.74566 4.0365 0.0 
4.37762 5.69706 0.0 
3.985 4.0788 0.0 
3.99908 3.98836 0.0 
3.96029 4.05566 0.0 
4.20514 4.08995 0.0 
4.6732 3.84438 0.0 
4.5337 3.96294 0.0 
4.21507 3.9482 0.0 
4.19583 4.0443 0.0 
4.97222 4.02124 0.0 
4.25623 4.02815 0.0 
4.21825 4.05616 0.0 
4.82173 4.02933 0.0 
3.99123 4.03344 0.0 
11.9473 3.59927 0.0 
5.1327 4.04445 0.0 
4.49647 3.99356 0.0 
4.29631 4.16914 0.0 
4.56826 3.97854 0.0 
5.182 4.1265 0.0 
4.02658 4.02585 0.0 
4.52688 4.06221 0.0 
3.9901 3.98452 0.0 
12.8057 1.94595 0.0 
4.29725 3.94224 0.0 
4.50649 4.06289 0.0 
4.32272 3.9696 0.0 
4.00659 4.01458 0.0 
4.68141 3.98439 0.0 
4.1797 4.07872 0.0 
4.34684 4.0781 0.0 
3.99899 4.01393 0.0 
13.395 7.46326 0.0 
4.67941 4.01821 0.0 
3.99765 4.0161 0.0 
13.2253 0 0.0 
3.99965 4.01129 0.0 
4.0859 4.0462 0.0 
5.06347 3.99507 0.0 
4.83257 4.0136 0.0 
2.31502 3.20823 0.0 
4.17755 3.91259 0.0 
5.08198 4.04957 0.0 
5.02947 4.00625 0.0 
4.60093 3.87617 0.0 
5.63104 7.16389 0.0 
9.52388 3.91596 0.0 
4.15321 4.05834 0.0 
2.57592 0.577205 0.0 
5.10463 0.940744 0.0 
4.08711 3.98632 0.0 
4.19313 4.04676 0.0 
4.08756 3.9652 0.0 
4.01254 4.0098 0.0 
3.98048 4.05294 0.0 
4.01888 3.97004 0.0 
4.13386 4.04638 0.0 
3.98816 4.01224 0.0 
4.07657 3.97121 0.0 
4.55737 3.97865 0.0 
12.7534 4.53968 0.0 
3.99752 4.02893 0.0 
4.01884 3.99521 0.0 
4.8509 4.06859 0.0 
3.98628 3.99582 0.0 
3.99602 4.00219 0.0 
4.98756 3.96669 0.0 
0.834287 1.27491 0.0 
4.73044 4.04269 0.0 
4.19196 3.96586 0.0 
4.12439 3.78262 0.0 
4.08057 3.95928 0.0 
4.62214 4.05326 0.0 
4.00774 3.99043 0.0 
4.01116 4.05763 0.0 
11.4589 4.50084 0.0 
4.3171 4.12404 0.0 
4.00784 3.94746 0.0 
3.93549 3.94275 0.0 
6.58763 3.89253 0.0 
9.52987 5.94501 0.0 
5.10311 4.0306 0.0 
4.28205 4.09231 0.0 
4.10106 3.95641 0.0 
4.04903 3.96922 0.0 
4.14367 3.99722 0.0 
4.09574 3.96974 0.0 
4.86283 6.51963 0.0 
7.1414 0 0.0 
4.03865 4.05465 0.0 
4.43159 3.97265 0.0 
4.23694 4.06512 0.0 
11.0267 3.21541 0.0 
3.9934 4.00897 0.0 
4.00862 3.98581 0.0 
1.65678 3.27105 0.0 
4.69402 3.97087 0.0 
4.07185 4.03629 0.0 
3.98595 3.93104 0.0 
4.12306 3.91938 0.0 
5.18793 4.05304 0.0 
5.02032 4.00921 0.0 
3.98111 4.00805 0.0 
4.9967 3.99841 0.0 
3.99352 3.97666 0.0 
0.747562 5.69493 0.0 
4.27645 4.0532 0.0 
4.56528 5.16368 0.0 
4.53571 4.0616 0.0 
4.66047 4.05025 0.0 
4.18514 3.9673 0.0 
3.98586 3.96653 0.0 
4.98084 4.00571 0.0 
11.3109 3.9311 0.0 
4.22633 3.95625 0.0 
3.98206 3.97395 0.0 
4.96309 4.00546 0.0 
4.13471 4.06268 0.0 
4.76693 3.99393 0.0 
4.00531 4.11408 0.0 
4.02402 4.04636 0.0 
4.69422 4.04726 0.0 
4.00375 4.03912 0.0 
4.06133 4.06985 0.0 
10.949 0.63286 0.0 
3.99417 4.04189 0.0 
7.6181 7.09785 0.0 
4.71441 7.15979 0.0 
3.99997 3.99241 0.0 
4.50187 3.97588 0.0 
5.0427 4.00784 0.0 
4.41083 4.08746 0.0 
3.98918 4.03714 0.0 
3.99169 4.04983 0.0 
4.01059 4.0357 0.0 
3.73952 4.14525 0.0 
4.01533 4.0664 0.0 
3.84262 3.97266 0.0 
4.00056 4.04248 0.0 
1.05155 0.371395 0.0 
2.48135 1.40934 0.0 
3.9896 4.00463 0.0 
4.67239 4.04907 0.0 
3.98613 3.98439 0.0 
4.03555 4.04124 0.0 
4.00273 4.04763 0.0 
4.02428 4.00868 0.0 
4.38526 3.90461 0.0 
5.00175 4.00176 0.0 
5.04094 3.99234 0.0 
4.25758 3.94763 0.0 
4.90708 4.01731 0.0 
4.7083 4.04599 0.0 
4.07295 4.06857 0.0 
3.98643 3.99986 0.0 
5.09543 3.99081 0.0 
4.72311 4.04279 0.0 
3.99581 3.98523 0.0 
4.74823 4.06761 0.0 
4.0344 3.97647 0.0 
3.98481 4.00073 0.0 
3.97761 4.0047 0.0 
2.82978 0.722772 0.0 
8.39153 6.28241 0.0 
5.0091 4.00467 0.0 
4.63846 4.05173 0.0 
4.11077 4.06077 0.0 
3.98558 4.00796 0.0 
4.0432 3.97194 0.0 
4.9336 4.01343 0.0 
9.76309 3.43924 0.0 
4.20203 3.96673 0.0 
11.4939 6.5944 0.0 
14 6.70716 0.0 
4.61725 4.05402 0.0 
4.99712 4.01383 0.0 
4.20062 4.06181 0.0 
4.74498 4.03976 0.0 
6.04221 4.03003 0.0 
9.04276 5.96039 0.0 
4.07076 4.03121 0.0 
4.08115 4.0483 0.0 
4.10927 3.95709 0.0 
3.99705 4.04765 0.0 
5.00029 3.98416 0.0 
4.13843 3.9353 0.0 
4.27037 4.11663 0.0 
4.31405 3.96933 0.0 
4.46419 3.97316 0.0 
4.88323 4.03493 0.0 
4.05754 4.0421 0.0 
4.02241 4.04141 0.0 
3.9487 4.03134 0.0 
4.70978 4.14251 0.0 
4.02972 4.05235 0.0 
4.68023 4.04814 0.0 
4.01777 4.04818 0.0 
4.96612 4.00778 0.0 
4.216 4.07035 0.0 
4.0266 3.96232 0.0 
11.6673 1.90274 0.0 
4.10695 3.94953 0.0 
4.94494 3.99653 0.0 
13.0064 4.46872 0.0 
14 7.03037 0.0 
11.8453 6.63552 0.0 
4.03778 3.99834 0.0 
4.98229 4.00503 0.0 
4.03462 3.97187 0.0 
13.4553 4.75688 0.0 
4.27242 3.94793 0.0 
4.98817 4.01929 0.0 
10.6471 4.06925 0.0 
3.95357 4.06538 0.0 
3.95795 4.02043 0.0 
4.10175 3.95894 0.0 
4.51527 3.97591 0.0 
4.06342 4.0391 0.0 
4.11133 3.96874 0.0 
4.00572 3.98505 0.0 
4.18591 4.0986 0.0 
11.7697 0.87263 0.0 
4.81515 4.03077 0.0 
3.9854 4.04401 0.0 
3.99904 3.97967 0.0 
3.94862 4.04213 0.0 
4.0176 3.99821 0.0 
4.21943 4.06231 0.0 
4.13659 4.04942 0.0 
4.07494 4.0438 0.0 
4.23876 4.10875 0.0 
4.02968 4.00685 0.0 
4.01663 3.98585 0.0 
4.06142 3.99821 0.0 
8.94038 7.70202 0.0 
2.33056 5.57699 0.0 
5.1145 3.99248 0.0 
4.27456 3.72512 0.0 
4.58193 4.03071 0.0 
7.14694 6.56071 0.0 
10.8478 4.42307 0.0 
5.00794 4.01633 0.0 
3.97614 4.01755 0.0 
4.03027 3.99925 0.0 
5.46984 4.17168 0.0 
4.10234 4.05392 0.0 
4.01026 3.99982 0.0 
9.15362 3.83805 0.0 
4.03576 3.97997 0.0 
4.12259 3.96778 0.0 
9.04106 0.69075 0.0 
4.05987 4.02962 0.0 
4.07218 4.06206 0.0 
4.34852 4.07558 0.0 
4.17743 3.96656 0.0 
[...]
<PointData>
  <DataArray type = "Float64" Name="Vitesse" NumberOfComponents="3" format="ascii">
1 0 0.0 
1.00682 0 0.0 
1.00549 0 0.0 
1 0 0.0 
0.0458313 -0.00313268 0.0 
0 0 0.0 
0.99996 0.000646084 0.0 
0.189542 0.0401893 0.0 
0 0 0.0 
0.95716 0.0588521 0.0 
1.00831 0.00102416 0.0 
0.609888 -0.464532 0.0 
0.606645 0.00670912 0.0 
1.00825 0.000575037 0.0 
0.240924 -0.0233513 0.0 
0.949583 0.0114093 0.0 
0.890522 -0.24568 0.0 
1.05199 -0.186483 0.0 
0.138639 -0.241356 0.0 
0.438842 0.00429461 0.0 
0.999962 -0.00094051 0.0 
0.241977 0.0051553 0.0 
1.0129 -0.132069 0.0 
0 0 0.0 
0 0 0.0 
0.977022 0.283257 0.0 
1.00955 -0.00169696 0.0 
0.0431519 0.0109007 0.0 
0.315256 0.0746747 0.0 
0 0 0.0 
0.835853 0.358939 0.0 
0.34956 0.241523 0.0 
0 0 0.0 
0 0 0.0 
0 0 0.0 
0.563147 -0.037608 0.0 
5.62537e-76 -5.81101e-78 0.0 
0.590546 -0.228836 0.0 
0.0597344 -0.0182255 0.0 
0 0 0.0 
1.0095 0 0.0 
0.683181 -0.0464786 0.0 
9.32549e-25 1.34486e-25 0.0 
0.0150498 -0.00716267 0.0 
-2.86971e-193 -2.56102e-194 0.0 
0.125335 0.0177189 0.0 
1.40784e-30 -4.98245e-31 0.0 
-6.81217e-227 2.49423e-227 0.0 
0.867777 0.348628 0.0 
0.0836265 0.00721656 0.0 
0.00286455 -0.000342529 0.0 
0.0124486 6.91951e-05 0.0 
1.00766 -0.30513 0.0 
0.747385 -0.0180828 0.0 
0.00475412 -0.000265001 0.0 
0.696941 -0.00835934 0.0 
-9.11634e-138 -6.06697e-138 0.0 
0.745818 -0.0108611 0.0 
1.00746 -0.000585734 0.0 
1.00736 -0.000604167 0.0 
1.00682 -0.000110986 0.0 
1.00706 -0.000904099 0.0 
1.00447 0.00721227 0.0 
0.670851 -0.0829427 0.0 
1.01019 -0.00183993 0.0 
5.00755e-11 7.22761e-12 0.0 
0.0254559 -0.0135149 0.0 
0.999509 -0.00310505 0.0 
0.192652 -0.294131 0.0 
4.52569e-35 -2.11598e-36 0.0 
0.0511329 -0.000314108 0.0 
0.0161106 -0.00895633 0.0 
1.00699 -0.00205293 0.0 
0.45429 0.160109 0.0 
1.00798 0 0.0 
1.0165 -0.0413992 0.0 
1.0104 -0.000289333 0.0 
0.369835 0.0385369 0.0 
0.736722 -0.0497906 0.0 
9.59072e-37 4.23268e-38 0.0 
3.76939e-37 -2.64651e-38 0.0 
1.00774 0.00123105 0.0 
0.347848 0.00364509 0.0 
0.0851563 0.0041478 0.0 
0.775304 -0.0840847 0.0 
1.01143 -0.257092 0.0 
0.363158 -0.00539836 0.0 
0.0645372 0.0144046 0.0 
0.609754 0.162315 0.0 
0.243252 0.00901216 0.0 
1.07947 -0.201581 0.0 
1.00631 0 0.0 
0.197469 -0.0263935 0.0 
0.00648796 0.000256227 0.0 
0.309177 0.222188 0.0 
0 0 0.0 
0.971866 0.21969 0.0 
4.90884e-106 -6.98517e-108 0.0 
0.0793884 0.0016973 0.0 
1.98938e-05 -2.21902e-06 0.0 
0.042185 -0.000870151 0.0 
1.008 5.81494e-05 0.0 
0.731521 0.332267 0.0 
0.12217 0.00182898 0.0 
0.581249 0.0827848 0.0 
1.00631 -0.000542245 0.0 
1.00574 -0.00368573 0.0 
0.999962 0.00202738 0.0 
0.348648 0.127407 0.0 
6.58432e-07 7.88282e-09 0.0 
0.852756 0.314427 0.0 
1.00801 -0.00995663 0.0 
0.0434766 -0.00123069 0.0 
-1.43641e-277 3.3121e-278 0.0 
0.134094 0.00695308 0.0 
4.87297e-06 -2.34713e-07 0.0 
0.0123652 0.000839469 0.0 
0 0 0.0 
1.00643 0.00445325 0.0 
0.673253 0.0994219 0.0 
0.000108547 -1.74545e-05 0.0 
0.0798701 -0.00812485 0.0 
0.14541 -0.0210824 0.0 
1.00936 0.000410818 0.0 
0.334251 0.174466 0.0 
0.175995 -0.017244 0.0 
1 0 0.0 
0.848733 0.19013 0.0 
-3.53993e-59 1.17085e-61 0.0 
1.00938 -0.00140231 0.0 
0.86202 -0.0703381 0.0 
0.106043 0.0189215 0.0 
1.02013 -0.0784652 0.0 
0.561601 0.0428345 0.0 
0.0773178 -0.00651758 0.0 
1.00081 0 0.0 
1.05278 -0.132585 0.0 
0.131142 0.00605739 0.0 
0.142221 -0.00424604 0.0 
1.00864 -0.00276125 0.0 
0.121132 -0.00997506 0.0 
0.447778 0.00121592 0.0 
1.06405 0.186213 0.0 
0 0 0.0 
0.369232 0.0470911 0.0 
0.131478 0.00482951 0.0 
0.282952 0.0457712 0.0 
0.549179 0.103146 0.0 
0.620592 0.370344 0.0 
0.847364 -0.0154601 0.0 
0.00674709 5.07602e-05 0.0 
-1.7172e-227 -1.53248e-228 0.0 
0.0360135 -0.000137126 0.0 
-2.38894e-74 -1.54538e-75 0.0 
0 0 0.0 
0.857528 -0.0505774 0.0 
0 0 0.0 
0.915665 -0.131358 0.0 
1.37763e-06 -4.02047e-07 0.0 
0.00786717 -8.15414e-05 0.0 
0.0630565 -0.0176423 0.0 
1.00873 -0.000838771 0.0 
0.00425053 0.000123654 0.0 
1.10846 0.16542 0.0 
0.0124281 1.12981e-05 0.0 
1.00956 0.00037342 0.0 
0.316146 -0.129265 0.0 
0.723702 0.121112 0.0 
0.0056583 -0.000331932 0.0 
0.721218 0.155789 0.0 
1.0003 0 0.0 
0.198001 0.178623 0.0 
0.76219 0.327066 0.0 
0.999375 -0.000581459 0.0 
0.791625 -0.0108279 0.0 
1.00857 0.000422613 0.0 
0.439826 -0.115957 0.0 
0.00379299 0.000384872 0.0 
4.22958e-11 1.86928e-11 0.0 
1.0097 1.13129e-05 0.0 
0.933481 0.0851121 0.0 
0.317784 0.0593535 0.0 
0.0788318 -0.0143319 0.0 
0.981333 -0.0228389 0.0 
1.00873 0.000900898 0.0 
0.473344 0.331465 0.0 
2.5153e-74 -2.59831e-76 0.0 
0.946735 -0.0516198 0.0 
0.0231055 -0.00474344 0.0 
0.143349 -0.0145056 0.0 
-2.70982e-151 -1.80401e-151 0.0 
0.446389 0.118372 0.0 
0.889425 0.345375 0.0 
0 0 0.0 
0.620639 -0.446425 0.0 
0 0 0.0 
0.386362 0.0164209 0.0 
0.0234097 -0.000489894 0.0 
1.00854 0.00129059 0.0 
0.609848 0.30508 0.0 
0.719526 0.0613847 0.0 
0.00550476 -0.000658728 0.0 
0.0874106 -0.00951173 0.0 
1.00202 0.00172511 0.0 
1.00673 -0.00032731 0.0 
0.00530211 0.000456728 0.0 
0.908308 0.0323922 0.0 
1.01345 -0.110695 0.0 
1.01295 -0.00311175 0.0 
1.00975 -0.00100512 0.0 
1.0005 -0.000465403 0.0 
1.00778 -0.000329682 0.0 
1.00202 -0.000375868 0.0 
-2.56127e-88 -6.2015e-89 0.0 
0.871084 -0.262249 0.0 
0.60292 0.336302 0.0 
0.0491894 -0.117035 0.0 
0.646342 0.181972 0.0 
6.83812e-34 -7.27292e-35 0.0 
1.01519 0.00854703 0.0 
0.83968 0.199593 0.0 
0.479709 -0.44635 0.0 
0.782162 0.134832 0.0 
0.809873 0.104783 0.0 
1.05741 0.00224687 0.0 
0.174576 0.00619765 0.0 
0.462476 -0.0134316 0.0 
0 0 0.0 
0.0442861 -0.00702296 0.0 
-4.61166e-199 -4.11559e-200 0.0 
4.29185e-150 5.87061e-151 0.0 
1.2733e-05 -1.64857e-06 0.0 
0.64721 0.25597 0.0 
1.01189 -0.000547829 0.0 
0.256144 -0.022854 0.0 
-5.65722e-121 -8.9347e-122 0.0 
1.12592 0.0947736 0.0 
2.19548e-24 2.31904e-25 0.0 
0.871839 -0.0442162 0.0 
0.053865 0.0324763 0.0 
0.00921122 -8.78279e-05 0.0 
0.595214 -0.347309 0.0 
1.00854 0.000569635 0.0 
0.507279 -0.00365546 0.0 
0.000434206 -1.43253e-05 0.0 
0.000621291 1.00915e-07 0.0 
0.116066 0.0993625 0.0 
4.39927e-28 3.47333e-29 0.0 
0.637316 0.0892739 0.0 
0.208798 0.00246072 0.0 
0.31222 0.267067 0.0 
1.00593 -0.000233432 0.0 
0 0 0.0 
0.386724 0.283518 0.0 
1.00711 0 0.0 
0.215486 0.216536 0.0 
0.0958008 0.0191167 0.0 
0.121771 0.01112 0.0 
7.88447e-97 2.60617e-98 0.0 
0.997247 -0.00325069 0.0 
1.07417 -0.0961318 0.0 
0.260779 -0.02901 0.0 
0.0533725 -0.00204657 0.0 
1.02375 0.00123985 0.0 
1.0103 0.000282508 0.0 
0.823404 -0.00144495 0.0 
0.0518251 0.00532524 0.0 
1.00236 -0.00114804 0.0 
1.00866 -0.00131293 0.0 
0 0 0.0 
2.09749e-166 2.86905e-167 0.0 
0.278945 -0.0297327 0.0 
1e-307 0 0.0 
0.759651 0.198424 0.0 
0.848959 -0.355322 0.0 
0 0 0.0 
0.433147 0.110327 0.0 
0.0605392 -0.00917854 0.0 
1.58539e-06 1.67898e-07 0.0 
1.01728 -0.000499413 0.0 
0.606525 0.314965 0.0 
0 0 0.0 
0.30299 -0.0258327 0.0 
0.460557 -0.192814 0.0 
0.133487 -0.0766728 0.0 
0.30623 0.0205923 0.0 
1.00016 -0.000648841 0.0 
0.00510557 -0.000762903 0.0 
0.0429368 9.49425e-05 0.0 
1.04397 -0.0934334 0.0 
0.582204 -0.0876434 0.0 
7.62332e-05 -4.50117e-06 0.0 
0 0 0.0 
0.825566 0.306575 0.0 
1.00953 -0.0015952 0.0 
1.04979 0.0738526 0.0 
0.925076 -0.302385 0.0 
0.850336 -0.11966 0.0 
0.86679 0.00620485 0.0 
1.00872 -0.00106571 0.0 
0.157285 -0.0165352 0.0 
0.6432 0.0458192 0.0 
0.552845 -0.0629891 0.0 
0.439485 -0.0915039 0.0 
0 0 0.0 
0.0493933 -0.00337008 0.0 
1.01172 0.00248977 0.0 
1.0087 0 0.0 
0.882835 0.340867 0.0 
0.00416265 0.000406706 0.0 
1.53537e-07 1.49355e-08 0.0 
1.00942 0.000416914 0.0 
0.294079 0.114401 0.0 
0.323092 -0.202604 0.0 
0.998608 -0.00131784 0.0 
0.142072 0.00624737 0.0 
-7.71063e-77 -2.25558e-77 0.0 
0.897833 -0.217599 0.0 
1.08919 -0.143588 0.0 
0.343985 -0.02539 0.0 
0.0410316 -0.00799986 0.0 
0.503484 0.00907269 0.0 
0.0057943 0.000406598 0.0 
0.709571 -0.378582 0.0 
1.00001 0.00108816 0.0 
1.52272e-202 1.27095e-203 0.0 
1.02495 0.0105094 0.0 
0.00796303 -0.000809005 0.0 
0.00429191 -0.000439348 0.0 
0.0139266 -0.000639102 0.0 
0.772565 -0.286903 0.0 
0.00288983 -0.000528084 0.0 
0.833467 0.00128283 0.0 
0.257032 -0.00286677 0.0 
0.716616 -0.267899 0.0 
4.92584e-26 -6.85753e-27 0.0 
0.367457 0.0647833 0.0 
2.88509e-63 2.24362e-64 0.0 
0.918021 0.197126 0.0 
0.817617 0.364041 0.0 
0.00855452 -0.000809145 0.0 
0.715291 0.336689 0.0 
0.968572 0.303484 0.0 
1.00791 0.000151634 0.0 
0.711122 0.270605 0.0 
1.00904 -0.000731669 0.0 
1.00934 0.00156331 0.0 
0.276133 -0.347496 0.0 
4.85234e-14 5.04767e-15 0.0 
0.0661311 -0.00168097 0.0 
0.378462 -0.00114303 0.0 
0.675993 0.241107 0.0 
0.750276 0.247766 0.0 
0.7082 0.375053 0.0 
0.941213 0.0321073 0.0 
0.861062 0.292796 0.0 
0.888022 -0.0266897 0.0 
0.72716 0.307906 0.0 
1.00035 -0.000264146 0.0 
1.00191 -0.00278931 0.0 
0.344761 -0.0250566 0.0 
0.00470962 -0.000459348 0.0 
0.608546 -0.292734 0.0 
0.661245 0.279556 0.0 
0.761781 0.304679 0.0 
0 0 0.0 
0.962143 -0.0156161 0.0 
0.0105143 -0.00642761 0.0 
0.115654 0.0140888 0.0 
0.427377 -0.0053697 0.0 
0.00121472 -0.000169335 0.0 
0.0108752 -0.00121651 0.0 
0.94979 0.280858 0.0 
0.424062 -0.12441 0.0 
0.166823 0.0139645 0.0 
2.00172e-05 -1.42244e-06 0.0 
0.579809 -0.434328 0.0 
0.229241 -0.0195394 0.0 
0.225726 -0.0599727 0.0 
0.448314 -0.101042 0.0 
0.540615 -0.0346288 0.0 
1.0029 -0.0016078 0.0 
1.00901 -0.00125303 0.0 
0.0263138 -0.00686896 0.0 
1.21729e-05 -1.27519e-07 0.0 
0.496302 0.106076 0.0 
0.43906 0.0243979 0.0 
0.372072 -0.0818825 0.0 
0.0021809 -0.000322677 0.0 
1.00884 -0.000497894 0.0 
0.0193529 -0.00104431 0.0 
1.00732 -0.000512064 0.0 
1.00629 -0.000609958 0.0 
2.83941e-14 -2.76893e-15 0.0 
0.0331182 -0.0117625 0.0 
1.1412e-10 1.55828e-11 0.0 
0.000234884 -1.31775e-05 0.0 
0.517046 -0.00493435 0.0 
1.00893 -0.00122246 0.0 
0 0 0.0 
0.273905 0.0665224 0.0 
0.48533 -0.048691 0.0 
0.748354 0.277191 0.0 
0.148609 0.0176596 0.0 
0.936359 -0.0984846 0.0 
1.04179 0.098825 0.0 
0.000753155 5.1689e-05 0.0 
0.0122347 -8.32146e-05 0.0 
0.0602716 -0.00735896 0.0 
0.318223 0.108745 0.0 
0.768365 0.364395 0.0 
0.746532 0.0630809 0.0 
0.983671 -0.0315314 0.0 
0.863322 0.353895 0.0 
0.00467042 -0.000336535 0.0 
0.814151 0.355464 0.0 
0.00160263 -0.000223746 0.0 
0.220638 0.0225785 0.0 
0.943594 -0.334353 0.0 
1.00869 0.000516006 0.0 
0.746298 -0.090649 0.0 
2.0219e-13 8.41654e-15 0.0 
1.01052 -0.000808091 0.0 
1.00594 -0.000464477 0.0 
1.00716 -0.000496569 0.0 
0 0 0.0 
0.00206188 -0.000403939 0.0 
0.528731 -0.153104 0.0 
1.00987 -0.00100974 0.0 
0.40974 -0.00296899 0.0 
0.0458993 -0.00979356 0.0 
0.807385 -0.00362073 0.0 
0.809718 0.126957 0.0 
0.696453 0.0437279 0.0 
0.454995 -0.0483287 0.0 
0.0044158 0.000565293 0.0 
1.15824e-24 3.94866e-25 0.0 
0.0385684 -0.00450375 0.0 
0.497296 -0.353892 0.0 
1.00283 0.152139 0.0 
1.0078 0.000233569 0.0 
1.41086e-05 -1.06287e-06 0.0 
0.718306 0.219637 0.0 
0.697787 -0.449114 0.0 
0.767266 0.0871392 0.0 
0 0 0.0 
1.97597e-151 2.70283e-152 0.0 
-9.4385e-65 -6.10569e-66 0.0 
0.116848 0.0355671 0.0 
1.01385 0.114488 0.0 
-2.03696e-267 -1.81784e-268 0.0 
1.48027e-70 -5.51143e-71 0.0 
-1.45434e-231 -1.2979e-232 0.0 
1.00782 -0.000187723 0.0 
1.00045 0.00524856 0.0 
0.172348 0.0125831 0.0 
1.05944 -0.0526759 0.0 
-1.95196e-203 -1.74199e-204 0.0 
1.01007 -0.00128028 0.0 
1.01168 -0.00130144 0.0 
0.043858 -0.0167716 0.0 
0.590559 0.0802647 0.0 
-3.54047e-283 2.52759e-282 0.0 
0.984619 -0.0293348 0.0 
0.284608 0.0627423 0.0 
0 0 0.0 
0.935684 -0.000276524 0.0 
-8.30864e-74 1.49182e-74 0.0 
0.0532209 -0.00389122 0.0 
1.00839 0.000184473 0.0 
0 0 0.0 
0.860759 0.258188 0.0 
0.150168 0.00076496 0.0 
0.0321905 0.000717041 0.0 
1.00874 -0.00111217 0.0 
0.00326205 -0.000263532 0.0 
1.05571 -0.174752 0.0 
1.00763 8.03573e-05 0.0 
1.00009 -0.000648536 0.0 
0.0113692 -0.00425759 0.0 
0.944785 -0.359765 0.0 
0.161251 0.167799 0.0 
1.0066 0.256733 0.0 
1.01172 -0.000223778 0.0 
0.534546 0.0113949 0.0 
0 0 0.0 
1.02503 -0.227964 0.0 
0.99234 -0.00673566 0.0 
0.0130612 0.000775553 0.0 
1.01033 -0.294628 0.0 
0.0486828 -0.00339839 0.0 
0.00315524 0.000450069 0.0 
0 0 0.0 
1.01234 0.000411808 0.0 
0.00640992 0.000566435 0.0 
0.323441 0.165405 0.0 
2.9217e-15 1.54458e-16 0.0 
0.136507 -0.019758 0.0 
0.370447 0.0101025 0.0 
1.90302e-06 -7.25059e-07 0.0 
2.63148e-11 5.11381e-12 0.0 
0.76405 -0.332245 0.0 
1.0226 -0.108389 0.0 
1.0086 0.000266191 0.0 
0.350792 0.0508429 0.0 
0 0 0.0 
1.00082 0.00298348 0.0 
0.00027839 4.57306e-05 0.0 
0.982877 0.080705 0.0 
0.184082 0.0081674 0.0 
0.726856 0.190889 0.0 
1.00702 0 0.0 
0.677691 0.198845 0.0 
0.000120135 -1.12004e-05 0.0 
0.500468 0.151695 0.0 
0.299604 -0.0275977 0.0 
-1.07986e-73 -1.96951e-74 0.0 
0.371141 0.0201326 0.0 
1.70534e-112 -1.96427e-113 0.0 
1.03632 -0.272806 0.0 
0.263619 -0.0193135 0.0 
0.593208 -0.0734825 0.0 
0.0401974 -0.00437969 0.0 
0.536668 -0.0628753 0.0 
1.00687 -0.000480574 0.0 
1.8068e-78 -1.90183e-80 0.0 
0.0671841 0.00330904 0.0 
1.09308 -0.0948258 0.0 
0 0 0.0 
6.37629e-05 7.22295e-06 0.0 
0.608643 -0.0164499 0.0 
1.00799 -0.0446685 0.0 
0.10182 0.126216 0.0 
0.905281 0.330947 0.0 
1.39464e-103 -1.98454e-105 0.0 
0.640571 0.360438 0.0 
0.183572 0.037817 0.0 
0 0 0.0 
1.00081 -0.000965787 0.0 
0.959235 0.302956 0.0 
1.56102e-101 1.75636e-101 0.0 
0.692985 -0.288742 0.0 
0 0 0.0 
1.0095 -0.00177127 0.0 
0.110646 0.00436271 0.0 
2.61826e-05 3.51253e-06 0.0 
0.0333722 0.000566616 0.0 
0.00825219 0.000215149 0.0 
5.97376e-05 -7.30331e-06 0.0 
0.00419686 0.000481071 0.0 
1.00871 0 0.0 
0.10982 0.0130691 0.0 
0.117687 -0.0215401 0.0 
1.00003 0.000512353 0.0 
0.745919 -0.428918 0.0 
0.0443913 -0.013382 0.0 
1.00245 0.207872 0.0 
1.00751 -0.000544514 0.0 
0.00895085 0.000171608 0.0 
0.160752 0.016541 0.0 
0.819971 -0.245273 0.0 
0.380733 -0.0249342 0.0 
0.244974 0.0444869 0.0 
0.0667276 0.00518682 0.0 
1.00293 -0.000867285 0.0 
0.78988 -0.201471 0.0 
0.0331733 -0.015012 0.0 
0.00352185 0.00022596 0.0 
0.844246 -0.0087629 0.0 
0.802737 -0.352379 0.0 
0.742558 0.0793915 0.0 
0.306639 -0.0225309 0.0 
0 0 0.0 
0.00492931 0.000241121 0.0 
1.0077 -0.00357081 0.0 
1.00903 -0.00137543 0.0 
1.01044 0.271225 0.0 
0.645076 -0.00956162 0.0 
0 0 0.0 
1.00772 0.000106743 0.0 
0.554389 -0.00517534 0.0 
0.00141208 -0.000354926 0.0 
1.00944 0.000586947 0.0 
0.83808 0.0455591 0.0 
0 0 0.0 
1.09207 0.0116907 0.0 
1.00859 0.000179991 0.0 
1.00051 0.00059102 0.0 
0.998408 -0.00306326 0.0 
1.01029 0.00136505 0.0 
1.20967e-21 1.23903e-22 0.0 
0.999991 0.000657021 0.0 
-1.4492e-248 -9.23018e-250 0.0 
0.0373891 -1.17496e-05 0.0 
1.00005 0.001617 0.0 
1.00779 -0.000654184 0.0 
0.225911 0.0236341 0.0 
0.96914 -0.341682 0.0 
0.71809 0.0874128 0.0 
0.129315 0.00448967 0.0 
0.0130321 -0.000490139 0.0 
0.00661458 -0.000217505 0.0 
0.000294233 3.75696e-05 0.0 
0.848699 0.331 0.0 
0.171208 0.00596055 0.0 
0.00968336 0.00425403 0.0 
1.00912 0.000487361 0.0 
1.00738 -0.00294605 0.0 
0.54064 0.299918 0.0 
0.838518 0.348072 0.0 
0.561459 -0.208291 0.0 
0.330989 -0.165476 0.0 
0.805896 0.165173 0.0 
1.00794 -0.000676383 0.0 
0.160253 -0.15814 0.0 
1.00753 -0.0005479 0.0 
0.665309 -0.216435 0.0 
1.01103 -0.00132675 0.0 
0.243246 0.238032 0.0 
1.00001 -0.000534896 0.0 
0.0719828 -0.0082674 0.0 
0.193947 -0.00562089 0.0 
0.616279 -0.117104 0.0 
0.291661 0.0327258 0.0 
1.12759 0.0495142 0.0 
0.563605 0.0547727 0.0 
0.0330792 0.00306879 0.0 
0.334814 -0.349884 0.0 
0.158356 -0.252104 0.0 
0.323917 0.16948 0.0 
-1.88026e-250 -1.678e-251 0.0 
0.0151673 0.000789677 0.0 
3.29836e-05 -3.10038e-06 0.0 
1.00617 -0.000324032 0.0 
0 0 0.0 
0 0 0.0 
9.20856e-07 1.84417e-07 0.0 
0 0 0.0 
0.920468 0.0347813 0.0 
0.661689 0.00733482 0.0 
0.337914 0.0651278 0.0 
0.84086 0.341166 0.0 
1.00781 0.000141899 0.0 
0.595209 -0.0261323 0.0 
0.00745216 -0.000297564 0.0 
0.354297 0.09072 0.0 
0.741287 0.302975 0.0 
0.93915 -0.176105 0.0 
0.0227564 0.00112676 0.0 
0.161633 0.00577444 0.0 
0.619413 0.010716 0.0 
1.00054 0.00243646 0.0 
-1.51959e-73 -1.90778e-74 0.0 
1.00575 -0.000118778 0.0 
-4.27101e-41 -3.60062e-42 0.0 
0.339189 -0.245517 0.0 
1.02835 -0.0378766 0.0 
0.0757051 0.0156853 0.0 
0.859785 -0.402667 0.0 
1.00941 0.000655794 0.0 
1.00793 0.000108514 0.0 
0.00100746 -5.40147e-05 0.0 
0.97725 0.175657 0.0 
0.781873 0.00426758 0.0 
1.01209 -0.00196481 0.0 
0.651589 -0.00240207 0.0 
0.678407 -0.367782 0.0 
1.00493 0.0011355 0.0 
5.11034e-16 2.91796e-17 0.0 
0.593752 -0.143279 0.0 
0.981226 0.00753687 0.0 
0.0393303 0.00655571 0.0 
1.0116 9.386e-05 0.0 
0.840562 0.0241992 0.0 
1.00924 0.000220792 0.0 
0.90107 0.279372 0.0 
1.00052 0.00427076 0.0 
0.0711835 0.00625243 0.0 
0.571194 -0.0285421 0.0 
0.99995 -0.000486209 0.0 
1.04016 -0.200868 0.0 
1.07044 -0.0278455 0.0 
0.00799448 0.000218562 0.0 
0.113065 0.00180532 0.0 
0.311733 -0.262665 0.0 
0.793336 0.00791024 0.0 
1.00499 -0.00287764 0.0 
0.351147 -0.0689855 0.0 
0.470214 -0.025944 0.0 
1.00853 -0.00122359 0.0 
0.712086 -0.137187 0.0 
0.0376334 -0.00861511 0.0 
0.124701 0.00527122 0.0 
0.737054 0.0903393 0.0 
0.000273826 1.92656e-05 0.0 
0.930607 -0.233094 0.0 
0.0256859 -0.000469312 0.0 
3.98466e-14 3.51553e-15 0.0 
0.957499 -0.258282 0.0 
1.00628 -0.0968702 0.0 
0.995177 -0.00354124 0.0 
0.0827415 -0.030811 0.0 
0.00664541 0.000958179 0.0 
0.496301 0.230987 0.0 
0.52695 0.0961065 0.0 
-2.49859e-222 -2.22982e-223 0.0 
0.00919243 0.001005 0.0 
0.99103 -0.0214139 0.0 
0.883817 -0.0142772 0.0 
0.0149334 -0.000524062 0.0 
1.00742 -0.000256982 0.0 
0.476432 -0.203333 0.0 
0.998853 -0.00014579 0.0 
1.04916 -0.148042 0.0 
2.09322e-101 -2.9786e-103 0.0 
0 0 0.0 
1.08518 -0.181811 0.0 
0.325501 0.110221 0.0 
4.97577e-67 3.86947e-68 0.0 
0.774746 0.0209107 0.0 
1.00804 0.000573539 0.0 
0.0233864 -0.00437284 0.0 
4.43361e-08 5.95512e-09 0.0 
0.0635025 0.00430584 0.0 
0.154695 0.00795213 0.0 
0 0 0.0 
0.227723 -0.0767988 0.0 
0.118733 0.0274593 0.0 
1.00901 -0.000256387 0.0 
0.00852035 0.000793285 0.0 
0.976453 0.107147 0.0 
1.00988 0.000894072 0.0 
1.00388 0.00268771 0.0 
0.0407889 -0.000148776 0.0 
0.287981 -0.0319344 0.0 
1.04315 0.153176 0.0 
0.90699 -0.391512 0.0 
0.388596 0.0320741 0.0 
0.839034 -0.332073 0.0 
5.00629e-06 -6.66528e-07 0.0 
0.120226 0.0112528 0.0 
0.373915 -0.0861498 0.0 
1.0068 -0.000270098 0.0 
1.01511 0.00246394 0.0 
0.727645 0.0571844 0.0 
0.784811 -0.277459 0.0 
0.88845 0.0029151 0.0 
-7.36158e-54 -6.1434e-55 0.0 
0.827128 -0.361363 0.0 
0.309296 -0.0942106 0.0 
4.89431e-119 5.04579e-122 0.0 
4.63062e-132 8.13504e-136 0.0 
0.0286517 0.00929222 0.0 
0.0600598 0.015259 0.0 
-5.21017e-217 1.90538e-217 0.0 
-6.46184e-72 -8.11258e-73 0.0 
0.965769 0.265443 0.0 
0.0434819 -0.00162206 0.0 
0.154978 0.0224255 0.0 
0 0 0.0 
0.0275206 -0.00521589 0.0 
0.0727671 0.00202701 0.0 
1.08775 0.109927 0.0 
0.837606 -0.419793 0.0 
0.101175 -0.0086624 0.0 
0.239886 -0.0068736 0.0 
0.836754 -0.418694 0.0 
0.056106 -0.00257064 0.0 
0.0482593 -0.0166883 0.0 
0 0 0.0 
0.155578 0.115464 0.0 
0.00538448 0.000152643 0.0 
0.999954 0.0014282 0.0 
0.99962 -0.000484521 0.0 
0.00531221 0.000109852 0.0 
0.335255 -0.00905016 0.0 
0.815496 0.0542453 0.0 
1e-307 0 0.0 
3.3523e-27 -1.30257e-27 0.0 
0.207764 -0.158314 0.0 
0.999985 -0.000593801 0.0 
0.846466 -0.0286349 0.0 
0.571655 0.0107946 0.0 
0.653818 -0.35367 0.0 
0.0585792 0.0100778 0.0 
0.130483 -0.0200122 0.0 
0.123341 0.0202537 0.0 
0.000347177 1.22016e-05 0.0 
-2.29735e-59 6.79782e-61 0.0 
0.999908 -0.000715338 0.0 
0.238777 0.129353 0.0 
0.910499 -0.0273092 0.0 
0.0363398 -0.0102732 0.0 
0 0 0.0 
0.516494 -0.0782335 0.0 
0.605358 -0.086845 0.0 
1.11918 0.139337 0.0 
1.00423 -0.00412641 0.0 
0.449623 -0.026165 0.0 
0.773499 0.0633598 0.0 
0.839156 0.147371 0.0 
0.0706482 -0.00613687 0.0 
1.01052 0.00761346 0.0 
0.0828294 0.0100544 0.0 
0.975304 -0.0368619 0.0 
0.0160792 0.000814855 0.0 
0.0150031 0.00082763 0.0 
0.567847 -0.0659117 0.0 
0.868405 -0.0102975 0.0 
1.02128 -0.0190342 0.0 
0.417004 -0.0390307 0.0 
0.0777063 0.0301535 0.0 
0.322512 0.262784 0.0 
0.656615 0.02415 0.0 
-2.76725e-69 -9.11329e-70 0.0 
7.21976e-86 -3.60501e-86 0.0 
0.00547648 0.000199492 0.0 
0.965155 -0.00379202 0.0 
1.00855 0.000276588 0.0 