<VTKFile type="UnstructuredGrid" version="0.1" byte_order="LittleEndian">
  <UnstructuredGrid>
    <Piece NumberOfPoints="13016" NumberOfCells="25871">
      <Points>
        <DataArray type = "Float64" NumberOfComponents="3" format="ascii">
0 0 0.0 
14 0 0.0 
14 8 0.0 
0 8 0.0 
4.16782 4.09801 0.0 
0.28507 1.30676 0.0 
4.48476 3.97299 0.0 
4.00044 3.99614 0.0 
4.25807 4.05754 0.0 
4.09208 3.95602 0.0 
4.44383 4.06881 0.0 
4.33592 4.0755 0.0 
4.06907 3.97035 0.0 
4.23496 3.96777 0.0 
4.04003 3.97377 0.0 
3.96554 4.00011 0.0 
4.98388 3.99768 0.0 
4.39909 4.09376 0.0 
4.07859 3.96719 0.0 
4.00816 3.98824 0.0 
4.44042 4.06787 0.0 
4.01323 3.99894 0.0 
4.92017 4.0166 0.0 
4.25007 4.10489 0.0 
4.00048 4.01062 0.0 
5.05797 4.00005 0.0 
4.71319 3.98403 0.0 
4.14647 3.96536 0.0 
4.00962 4.08349 0.0 
5.00199 3.99035 0.0 
3.86811 3.81654 0.0 
4.33218 4.06749 0.0 
4.17005 3.96726 0.0 
5.07017 3.9768 0.0 
4.97899 4.00685 0.0 
4.09033 4.05486 0.0 
4.87613 4.00829 0.0 
6.99385 4.28312 0.0 
4.17759 3.97818 0.0 
4.09533 4.03459 0.0 
4.00922 3.99881 0.0 
4.38671 4.07149 0.0 
4.29568 4.06956 0.0 
4.50035 4.1111 0.0 
4.36731 4.05544 0.0 
4.94064 3.91822 0.0 
5.1639 3.91995 0.0 
4.71715 4.04526 0.0 
3.93682 3.99751 0.0 
4.11094 4.03801 0.0 
4.21674 3.98043 0.0 
4.36199 4.05276 0.0 
4.19353 4.07857 0.0 
4.04195 3.99899 0.0 
3.92734 3.67085 0.0 
4.21026 3.93615 0.0 
7.38378 7.01513 0.0 
7.31177 0.840293 0.0 
4.02815 4.04832 0.0 
4.17243 4.0592 0.0 
4.02795 4.02976 0.0 
5.31539 5.88296 0.0 
4.43096 4.067 0.0 
4.05291 3.93488 0.0 
4.11167 4.05268 0.0 
4.11428 4.04884 0.0 
4.34859 4.05902 0.0 
4.21178 4.08546 0.0 
4.96507 4.02144 0.0 
4.66312 3.98339 0.0 
4.01202 4.00466 0.0 
4.01647 3.99236 0.0 
10.8039 4.54212 0.0 
4.26923 4.06845 0.0 
4.48139 3.97382 0.0 
4.28029 3.95258 0.0 
4.41811 4.06843 0.0 
0 6.15459 0.0 
4.0192 3.99331 0.0 
4.47785 4.06484 0.0 
4.4901 4.0657 0.0 
4.97524 4.02614 0.0 
4.17785 3.95317 0.0 
4.80191 3.98869 0.0 
5.00785 4.00312 0.0 
10.8833 7.73481 0.0 
4.23781 4.08596 0.0 
14 6.11123 0.0 
4.76276 3.98763 0.0 
3.99379 4.00703 0.0 
3.96293 3.99513 0.0 
3.92924 4.17117 0.0 
5.20801 3.95079 0.0 
5.11233 0.94049 0.0 
4.43452 4.32977 0.0 
4.00327 3.99438 0.0 
3.88293 4.06948 0.0 
4.23715 4.07498 0.0 
3.87643 4.36411 0.0 
4.23704 3.98643 0.0 
4.56689 3.97645 0.0 
4.62277 3.83577 0.0 
5.03684 4.01469 0.0 
4.24569 4.05438 0.0 
4.1512 4.05743 0.0 
4.27923 4.09922 0.0 
5.07946 3.96553 0.0 
5.05184 3.95791 0.0 
4.6495 4.11137 0.0 
14 5.21618 0.0 
4.73583 3.9668 0.0 
4.05779 3.94742 0.0 
4.0339 4.05256 0.0 
4.28749 4.07809 0.0 
3.94943 3.96456 0.0 
4.21347 3.96572 0.0 
4.00996 3.98706 0.0 
4.80536 4.01156 0.0 
4.02651 3.98657 0.0 
4.29529 4.08944 0.0 
9.91833 3.08437 0.0 
3.91082 3.82272 0.0 
4.35343 3.94951 0.0 
4.57862 3.944 0.0 
4.39397 4.03524 0.0 
13.3549 8 0.0 
4.00051 3.91421 0.0 
9.56245 4.86411 0.0 
3.05817 4.59047 0.0 
4.0008 3.98691 0.0 
4.34569 4.08404 0.0 
4.58939 3.97782 0.0 
4.37798 8 0.0 
4.12623 4.0709 0.0 
4.08373 4.05666 0.0 
4.09568 4.05562 0.0 
3.93749 4.02683 0.0 
4.62072 3.96435 0.0 
4.27852 0 0.0 
5.04845 4.04311 0.0 
4.29262 4.07791 0.0 
6.37237 6.5803 0.0 
4.36036 4.06937 0.0 
4.02428 4.03941 0.0 
4.29495 3.95421 0.0 
3.88043 4.02709 0.0 
2.44506 7.17875 0.0 
4.70266 8 0.0 
4.88734 4.03893 0.0 
4.19767 3.93669 0.0 
4.05059 4.03588 0.0 
5.12437 3.90419 0.0 
4.13425 4.07811 0.0 
4.22225 3.98357 0.0 
4.45933 3.96288 0.0 
5.52872 3.97338 0.0 
4.1741 4.07586 0.0 
3.99922 3.99464 0.0 
4.62648 4.05584 0.0 
4.67456 3.98249 0.0 
4.48682 4.03435 0.0 
4.12928 4.0505 0.0 
2.88402 3.57684 0.0 
4.07925 4.04209 0.0 
4.92374 3.98862 0.0 
3.91267 2.38613 0.0 
4.02873 4.0411 0.0 
4.06234 3.9498 0.0 
4.29787 4.08601 0.0 
4.08859 4.05676 0.0 
4.74695 4.04079 0.0 
3.43216 3.21028 0.0 
6.48058 8 0.0 
4.12124 3.98374 0.0 
4.09891 4.09363 0.0 
4.90024 4.01864 0.0 
4.08226 3.93581 0.0 
4.17912 4.05461 0.0 
4.94911 4.00997 0.0 
4.24743 3.99271 0.0 
4.87808 4.04178 0.0 
4.99458 4.03862 0.0 
5.12765 4.63197 0.0 
4.88044 0 0.0 
4.1829 4.06659 0.0 
4.12635 4.07409 0.0 
0 1.4212 0.0 
12.1222 6.79508 0.0 
7.56656 2.21648 0.0 
4.18679 4.08465 0.0 
4.05724 4.03926 0.0 
4.01709 4.02079 0.0 
2.9308 8 0.0 
4.30855 3.96765 0.0 
4.25777 4.07923 0.0 
4.9908 4.01037 0.0 
4.96347 3.98813 0.0 
4.0644 3.93891 0.0 
4.08173 3.96202 0.0 
4.16503 4.11076 0.0 
13.5869 1.32349 0.0 
4.36513 4.0903 0.0 
4.56315 4.0587 0.0 
4.19206 3.91938 0.0 
5.00671 4.01055 0.0 
3.96023 4.01528 0.0 
4.09641 3.95124 0.0 
4.12454 3.92729 0.0 
4.92904 3.99657 0.0 
4.08491 4.0641 0.0 
3.96293 4.03138 0.0 
4.64658 4.05243 0.0 
4.06298 3.99231 0.0 
6.64043 6.6588 0.0 
4.23768 4.04493 0.0 
3.46919 3.43225 0.0 
4.21125 3.95113 0.0 
3.99252 4.00665 0.0 
4.92914 3.96046 0.0 
4.17636 4.06982 0.0 
4.01378 4.004 0.0 
4.04894 3.98467 0.0 
3.94066 3.96869 0.0 
4.62261 4.05342 0.0 
3.95819 3.97698 0.0 
5.01567 4.00099 0.0 
4.30181 4.08028 0.0 
4.23165 4.07938 0.0 
4.54783 4.09596 0.0 
4.15636 4.04974 0.0 
3.95778 3.98461 0.0 
4.31441 4.0529 0.0 
3.9419 3.97853 0.0 
4.00533 4.00169 0.0 
4.19018 4.05306 0.0 
4.10081 3.94382 0.0 
4.6933 4.07221 0.0 
3.97807 4.03955 0.0 
4.36762 4.08678 0.0 
3.99651 4.05409 0.0 
4.40122 3.9707 0.0 
4.22913 4.08121 0.0 
5.00368 4.02219 0.0 
4.18711 4.07563 0.0 
3.9771 4.03148 0.0 
4.01076 4.00369 0.0 
4.97906 4.00609 0.0 
11.8856 5.40534 0.0 
4.15561 4.10177 0.0 
4.18309 4.12442 0.0 
3.96476 4.03852 0.0 
4.10071 4.04305 0.0 
1.00301 3.05384 0.0 
8.08359 1.05344 0.0 
5.05867 3.96895 0.0 
3.96822 4.02719 0.0 
3.97233 4.04194 0.0 
3.98573 3.91699 0.0 
4.50996 3.97567 0.0 
4.36005 4.05676 0.0 
4.39564 4.08373 0.0 
4.57894 1.01439 0.0 
4.20876 3.92492 0.0 
3.92251 4.00785 0.0 
4.80047 3.96562 0.0 
4.22446 3.96634 0.0 
4.4423 4.0673 0.0 
4.24767 4.06601 0.0 
3.98822 4.0043 0.0 
4.3089 4.04268 0.0 
5.41927 4.06199 0.0 
4.42945 4.11985 0.0 
4.3527 4.06185 0.0 
4.14583 4.0438 0.0 
3.94564 3.99975 0.0 
4.56265 4.05984 0.0 
3.94968 4.08954 0.0 
4.19242 4.16581 0.0 
5.0401 4.02083 0.0 
4.98371 4.01321 0.0 
4.50754 4.06284 0.0 
4.0062 4.04545 0.0 
4.52064 4.08001 0.0 
4.25898 4.13439 0.0 
4.00325 3.99017 0.0 
11.7013 4.10211 0.0 
4.27554 4.05011 0.0 
4.01706 3.99618 0.0 
4.40901 4.06913 0.0 
4.1384 3.95607 0.0 
4.35053 3.94551 0.0 
4.18427 3.96504 0.0 
4.5533 4.04791 0.0 
4.66311 4.04844 0.0 
4.36894 4.08372 0.0 
4.05428 3.94079 0.0 
5.0537 3.98339 0.0 
4.01828 4.02196 0.0 
4.02341 4.03456 0.0 
4.77658 6.83191 0.0 
4.52724 7.41561 0.0 
5.05919 4.01855 0.0 
4.0163 3.96924 0.0 
4.8861 4.02139 0.0 
4.98691 4.00404 0.0 
4.41867 4.07883 0.0 
3.94009 3.99141 0.0 
4.02482 3.96981 0.0 
4.20359 4.06497 0.0 
4.01104 3.98573 0.0 
5.50065 6.93147 0.0 
4.80139 3.96134 0.0 
4.93247 4.0782 0.0 
5.00048 3.9712 0.0 
4.45327 4.05752 0.0 
1.24078 0.550265 0.0 
4.63808 4.0619 0.0 
4.33975 3.99398 0.0 
2.38032 0.204862 0.0 
4.06103 3.9941 0.0 
9.1005 7.43296 0.0 
4.34994 4.09246 0.0 
4.26148 3.94171 0.0 
4.55503 4.06085 0.0 
4.25416 3.95119 0.0 
4.48618 4.06427 0.0 
4.01517 4.03055 0.0 
4.49019 4.06766 0.0 
4.11374 4.05247 0.0 
3.9956 4.03796 0.0 
4.23145 3.94567 0.0 
4.02246 4.02836 0.0 
13.1088 3.43087 0.0 
3.99908 3.98836 0.0 
5.14793 4.17318 0.0 
4.12151 3.94609 0.0 
4.80983 4.06123 0.0 
9.28793 6.2702 0.0 
4.05538 3.9957 0.0 
4.97979 4.00558 0.0 
5.01588 4.10724 0.0 
4.71772 4.04453 0.0 
4.97222 4.02124 0.0 
4.30213 3.96806 0.0 
4.12673 3.95742 0.0 
4.00325 3.99521 0.0 
4.2266 4.04317 0.0 
4.2163 3.94824 0.0 
9.67221 0.852756 0.0 
4.22957 3.95099 0.0 
4.35474 4.08037 0.0 
4.2327 3.96685 0.0 
5.1327 4.04445 0.0 
6.54879 3.01287 0.0 
3.9986 0 0.0 
4.2284 4.07124 0.0 
4.38842 4.0764 0.0 
4.93092 4.0133 0.0 
4.2655 3.94563 0.0 
4.24532 4.11643 0.0 
4.04743 3.97272 0.0 
3.99014 3.98454 0.0 
4.12408 3.94161 0.0 
4.65847 4.05089 0.0 
2.18452 1.43095 0.0 
4.18442 4.04414 0.0 
4.66701 4.07141 0.0 
4.0089 4.00797 0.0 
3.58875 5.4291 0.0 
4.44904 3.97442 0.0 
4.00374 3.93898 0.0 
4.1525 3.96202 0.0 
4.82143 3.99548 0.0 
4.74324 4.04117 0.0 
0.808626 5.25399 0.0 
4.74688 2.00431 0.0 
6.24703 4.08529 0.0 
4.1819 3.96304 0.0 
4.00211 3.9916 0.0 
5.85753 4.14922 0.0 
4.255 4.06009 0.0 
12.7967 4.95651 0.0 
4.51983 4.11882 0.0 
4.08993 3.97025 0.0 
5.23738 3.9668 0.0 
4.30211 3.98484 0.0 
4.66631 3.98221 0.0 
4.17983 4.0788 0.0 
5.15662 3.95296 0.0 
4.93819 4.01209 0.0 
4.2489 4.09629 0.0 
5.06347 3.99507 0.0 
4.67152 3.98271 0.0 
4.2295 4.0772 0.0 
4.32398 4.05563 0.0 
5.08198 4.04957 0.0 
3.99623 4.0615 0.0 
5.02947 4.00625 0.0 
10.366 2.72684 0.0 
4.22232 3.99113 0.0 
4.76429 4.0556 0.0 
4.01239 4.11604 0.0 
4.03513 3.9876 0.0 
6.91256 3.08935 0.0 
4.18791 3.79398 0.0 
3.8602 3.76492 0.0 
4.85597 4.02495 0.0 
4.41069 3.99899 0.0 
4.22542 3.92155 0.0 
3.99883 4.01382 0.0 
4.68559 4.09307 0.0 
4.36051 4.07918 0.0 
4.08942 3.95104 0.0 
4.97743 4.01128 0.0 
4.85261 4.00913 0.0 
4.01165 4.04753 0.0 
4.54401 3.97669 0.0 
4.35845 4.05918 0.0 
4.20227 4.08039 0.0 
4.23985 4.08128 0.0 
4.13828 3.82509 0.0 
6.43644 7.53599 0.0 
7.22872 4.739 0.0 
4.10203 3.95404 0.0 
4.02841 4.03118 0.0 
3.99752 4.02893 0.0 
4.04417 4.03407 0.0 
4.26259 4.0847 0.0 
4.15582 4.07076 0.0 
3.99882 3.99972 0.0 
4.27862 4.07056 0.0 
4.69792 4.06439 0.0 
4.1339 4.047 0.0 
7.69612 2.66902 0.0 
5.68063 5.24282 0.0 
4.01204 4.00974 0.0 
4.24602 4.08879 0.0 
4.25795 4.11099 0.0 
3.87298 4.1921 0.0 
1.63427 7.45641 0.0 
4.08637 3.98671 0.0 
8.1554 7.24604 0.0 
4.34634 4.12041 0.0 
4.00432 3.99827 0.0 
4.39392 3.97073 0.0 
3.99522 3.95021 0.0 
8.23482 7.7858 0.0 
4.02699 4.00512 0.0 
4.8722 4.05404 0.0 
4.07216 4.04076 0.0 
4.94498 3.99547 0.0 
4.11547 4.05337 0.0 
4.0911 3.98345 0.0 
4.14295 3.97632 0.0 
4.70146 4.04553 0.0 
8.87792 8 0.0 
4.4773 3.98445 0.0 
4.14183 3.94415 0.0 
5.0218 3.98124 0.0 
4.61115 3.92422 0.0 
4.04938 3.97266 0.0 
4.28395 4.08907 0.0 
4.0766 3.95386 0.0 
3.8127 3.98977 0.0 
5.10311 4.0306 0.0 
11.4717 0.893933 0.0 
4.54162 4.05023 0.0 
4.95992 4.0093 0.0 
6.89479 7.20775 0.0 
4.10808 3.96074 0.0 
4.08645 3.96932 0.0 
2.65179 3.74535 0.0 
4.08123 3.94142 0.0 
3.98027 4.05285 0.0 
9.64424 3.48549 0.0 
[...]
<PointData>
  <DataArray type = "Float64" Name="Vitesse" NumberOfComponents="3" format="ascii">
1 0 0.0 
1.00036 0 0.0 
0.999773 0 0.0 
1 0 0.0 
1.03164 0.173061 0.0 
1.00001 -0.000205615 0.0 
0.0247793 0.00119497 0.0 
0.0789797 -0.153805 0.0 
-6.09976e-186 -7.05517e-187 0.0 
0.622243 -0.081664 0.0 
0.0393208 -0.00102381 0.0 
0.156149 0.00306834 0.0 
0.163893 -0.0239418 0.0 
0.000935007 1.16111e-05 0.0 
0.300582 -0.0728701 0.0 
0.646763 -0.0576688 0.0 
0.00786469 -0.000304637 0.0 
0.513494 0.00423447 0.0 
0.246699 -0.0336755 0.0 
0.133304 -0.0778343 0.0 
0.0224275 -0.000627762 0.0 
0 0 0.0 
0.00516326 -0.000805652 0.0 
0.950778 0.0978161 0.0 
0.171072 0.189825 0.0 
0.0985527 0.00718657 0.0 
0.0149116 0.000793349 0.0 
0.0898573 -0.00525584 0.0 
0.882341 0.244669 0.0 
0.0935522 0.016919 0.0 
0.951876 -0.0692386 0.0 
8.66045e-13 2.06748e-14 0.0 
0.0196683 0.000390665 0.0 
0.245822 0.0240177 0.0 
0.00443671 -0.000816998 0.0 
0.464518 0.118548 0.0 
-1.01917e-103 1.02197e-104 0.0 
1.00498 0.000109326 0.0 
0 0 0.0 
0 0 0.0 
0 0 0.0 
0.0618353 -0.00172845 0.0 
0.0432315 0.0053467 0.0 
0.753297 -0.00777601 0.0 
0 0 0.0 
0.745163 0.0270277 0.0 
0.741239 0.034917 0.0 
0.0129695 -0.00133195 0.0 
0.764157 -0.0380731 0.0 
0 0 0.0 
-9.70467e-113 -1.03655e-115 0.0 
0 0 0.0 
0.571847 0.0736534 0.0 
0 0 0.0 
0.991756 -0.0620147 0.0 
0.743258 -0.036359 0.0 
1.00588 -0.00266704 0.0 
1.00697 0.0013697 0.0 
0.837935 0.357691 0.0 
9.81913e-07 1.79289e-07 0.0 
0.284661 0.138026 0.0 
1.01492 -0.00101663 0.0 
2.54277e-05 5.17775e-07 0.0 
1.05503 -0.245128 0.0 
0.125991 0.0265426 0.0 
-7.15194e-153 -1.54184e-153 0.0 
1.19555e-278 1.56328e-280 0.0 
0.685868 0.0809591 0.0 
0.0434363 -0.00639348 0.0 
8.06342e-19 2.29819e-20 0.0 
0 0 0.0 
0 0 0.0 
0.998834 0.000556247 0.0 
0.0344575 0.000982328 0.0 
0.0131382 0.000861188 0.0 
0.308601 -5.48176e-05 0.0 
0.016146 -0.00102662 0.0 
1 0 0.0 
0 0 0.0 
2.154e-05 -1.78984e-06 0.0 
0.0255502 -0.001347 0.0 
0.0700768 -0.0104799 0.0 
0.395356 -0.0167022 0.0 
0.00893093 0.000653886 0.0 
0.0250916 -0.00457104 0.0 
1.00009 -0.000111316 0.0 
0.60915 0.0579449 0.0 
0.999784 3.98097e-05 0.0 
2.14523e-62 2.59888e-63 0.0 
0.253866 0.0719011 0.0 
0.671726 -0.0813508 0.0 
0.932347 0.105389 0.0 
0.513059 0.0282653 0.0 
1.00837 -0.00110172 0.0 
1.08718 0.0377917 0.0 
9.6694e-134 -4.61302e-134 0.0 
0.87096 0.0506609 0.0 
0.299513 0.0247275 0.0 
0.984219 0.0635301 0.0 
1.43409e-230 1.30421e-231 0.0 
0.0231598 0.000952525 0.0 
1.06651 -0.000833851 0.0 
0.0640803 -0.00929807 0.0 
-1.407e-266 -1.34322e-267 0.0 
0.0348118 0.0062102 0.0 
0.798155 0.0620986 0.0 
0.346272 0.0287603 0.0 
0.40757 0.0321302 0.0 
0.732133 -0.0290277 0.0 
0.999824 9.98154e-05 0.0 
0.203999 0.00853647 0.0 
1.02137 -0.235966 0.0 
0.869403 0.34739 0.0 
0.275245 0.0110629 0.0 
0.794828 -0.13038 0.0 
0.0422741 0.000448993 0.0 
0.131713 -0.0840707 0.0 
3.39173e-148 -3.07033e-149 0.0 
2.97628e-94 -1.17218e-94 0.0 
0.550261 0.0319244 0.0 
0.999737 0.00217674 0.0 
0.95448 -0.0873327 0.0 
0.348061 0.00381131 0.0 
0.436842 0.0116836 0.0 
0 0 0.0 
0.999774 0 0.0 
0.945339 -0.207424 0.0 
0.997897 -0.000179605 0.0 
0.991482 0.011368 0.0 
0.515143 -0.443864 0.0 
0.348793 0.00725744 0.0 
0.0180304 0.00083519 0.0 
1.00771 0 0.0 
0.720668 0.145287 0.0 
0.614098 0.164457 0.0 
0.440025 0.108133 0.0 
0.769316 0.0382912 0.0 
0.188911 0.00768152 0.0 
1.0061 0 0.0 
0.206361 -0.027138 0.0 
0.260876 0.0111065 0.0 
1.00919 -0.00299501 0.0 
0.0179813 0.000789239 0.0 
0.731806 0.347509 0.0 
0.272225 0.000997722 0.0 
0.85584 0.0133967 0.0 
1.00265 0.00188004 0.0 
1.00828 0 0.0 
0.0892097 -0.0105685 0.0 
0.757632 -0.0416443 0.0 
0.0983183 0.0403205 0.0 
0.840944 0.0361983 0.0 
0.854543 0.16917 0.0 
2.90822e-266 2.73071e-267 0.0 
0.15086 0.00476285 0.0 
0.458079 0.0126647 0.0 
0.58342 0.0829897 0.0 
0.198042 -0.293386 0.0 
0.0253974 -0.00218169 0.0 
0.0109571 0.000360503 0.0 
-9.31681e-291 3.50499e-292 0.0 
6.99795e-16 1.2062e-16 0.0 
0.991127 -0.00429149 0.0 
1.13465e-36 3.05048e-37 0.0 
0.0643655 0.003452 0.0 
1.00769 -0.00969817 0.0 
0.73603 0.331541 0.0 
0.977471 -0.213006 0.0 
0.461687 0.0247175 0.0 
0.563304 0.14606 0.0 
0.00621654 -0.000868391 0.0 
0.996031 -0.0155751 0.0 
1.00767 0 0.0 
0 0 0.0 
1.04744 0.250841 0.0 
0.00224872 -0.00018154 0.0 
1.06229 -0.192704 0.0 
0 0 0.0 
1.07552e-05 -1.5723e-06 0.0 
0 0 0.0 
0.101602 -0.0117658 0.0 
0.151601 -0.0215344 0.0 
1.0324 -0.0144978 0.0 
1.00727 0 0.0 
0.223713 0.0263334 0.0 
0.804901 0.165465 0.0 
1 0 0.0 
0.99972 -7.4485e-05 0.0 
1.00761 0.00541427 0.0 
0.763141 0.107274 0.0 
0.163073 0.061319 0.0 
1.0926e-06 4.54e-07 0.0 
1.00387 0 0.0 
0.0252577 0.00101258 0.0 
0.369962 0.0273848 0.0 
0.0202963 -0.00548128 0.0 
0.0882133 0.0046051 0.0 
1.0606 -0.227746 0.0 
0.458653 -0.0644486 0.0 
1.09313 0.185619 0.0 
1.00033 0.000207698 0.0 
0.470418 0.0090061 0.0 
9.09852e-06 -3.93773e-07 0.0 
1.01903 -0.0781183 0.0 
0.0302693 -0.0141092 0.0 
0.679126 0.0260991 0.0 
0.753551 -0.101911 0.0 
1.0544 -0.134528 0.0 
6.88357e-20 4.89761e-21 0.0 
0.827995 0.226802 0.0 
0.707861 0.0971924 0.0 
0.0109265 -0.00100249 0.0 
0 0 0.0 
1.00832 -0.0031706 0.0 
0 0 0.0 
0.989297 -0.0192151 0.0 
0.395316 -0.0101838 0.0 
0.284032 0.0479864 0.0 
0.343505 0.0153568 0.0 
0.372802 0.0480388 0.0 
0 0 0.0 
-8.81848e-210 6.54367e-211 0.0 
0.798051 -0.10534 0.0 
9.81119e-05 -4.83922e-06 0.0 
0.743293 -0.134231 0.0 
0.0448616 0.00274502 0.0 
0.3107 0.0151144 0.0 
0.447862 0.0408801 0.0 
0.515196 -0.0178948 0.0 
0 0 0.0 
0.720646 -0.111578 0.0 
0 0 0.0 
0.775922 -0.0901677 0.0 
0 0 0.0 
0 0 0.0 
0.915399 -0.131372 0.0 
0.2498 -0.0193498 0.0 
0.702581 0.179055 0.0 
0.391913 0.00563911 0.0 
0.778825 0.26351 0.0 
0.0183451 0.000909535 0.0 
0.508801 0.0487845 0.0 
0.0658356 -0.0178151 0.0 
0.511581 0.0670912 0.0 
0.662919 0.156464 0.0 
0 0 0.0 
0.00278348 -0.000508369 0.0 
0.999471 9.2679e-05 0.0 
1.06938 0.192203 0.0 
1.10795 0.168696 0.0 
0.725248 0.122493 0.0 
-9.85805e-169 -1.8999e-169 0.0 
0.999658 -0.000685539 0.0 
1.00542 0.00208644 0.0 
0.307771 0.0283597 0.0 
0.674666 0.100702 0.0 
0.722874 0.157148 0.0 
0.919409 -0.194586 0.0 
0.0049288 0.000750813 0.0 
2.47542e-278 3.24908e-280 0.0 
0.31074 -0.00123302 0.0 
1.00757 -0.00213604 0.0 
0.934439 -0.0575441 0.0 
0.793769 -0.0095887 0.0 
0.241473 0.0103618 0.0 
0.0287126 0.00111052 0.0 
0.0138195 -0.000830579 0.0 
7.47663e-07 6.01981e-08 0.0 
0.377032 -0.0338144 0.0 
0 0 0.0 
0.52335 -0.0239643 0.0 
0.91142 0.0167569 0.0 
5.02905e-296 7.08241e-298 0.0 
0 0 0.0 
0.737149 -0.0383484 0.0 
0.0125307 -0.000895889 0.0 
0.854885 0.130301 0.0 
1.09607 0.143565 0.0 
0.0810795 -0.0141638 0.0 
0.0240457 -0.00487281 0.0 
0.00107175 -4.56376e-05 0.0 
0.763935 0.328616 0.0 
0.257377 -0.0114095 0.0 
1.12261 0.116319 0.0 
0.278025 -0.255464 0.0 
0.999509 0.000616393 0.0 
0 0 0.0 
0 0 0.0 
0.0269713 -0.000627078 0.0 
0.404921 -0.0275861 0.0 
0.419864 0.00293869 0.0 
0.0648938 -0.00147627 0.0 
0 0 0.0 
1.3236e-23 -4.3994e-25 0.0 
0.324207 0.0034562 0.0 
1.0546 -0.249472 0.0 
0.185021 0.021428 0.0 
0.0809948 0.0336552 0.0 
0.613906 0.305245 0.0 
1.01012 0.00167539 0.0 
1.00837 0.00110574 0.0 
0.0908225 -0.00954427 0.0 
0.876983 -0.384483 0.0 
0.00377716 -0.000496985 0.0 
0.00169228 -0.000491846 0.0 
0.210659 -0.00322129 0.0 
0.761157 -0.0571776 0.0 
0.791493 -0.294933 0.0 
0.0796274 0.00338636 0.0 
0.201317 -0.1225 0.0 
1.01016 -0.000316066 0.0 
0.287438 0.0120007 0.0 
0.454467 -0.0372771 0.0 
0.270023 0.0225669 0.0 
2.78734e-81 -1.41223e-82 0.0 
1.00047 -0.000442505 0.0 
0.095724 -0.00787189 0.0 
1.07318e-213 9.75994e-215 0.0 
1.00191 -0.000349819 0.0 
0 0 0.0 
1.00166 -0.000976155 0.0 
0.533388 0.0154195 0.0 
0.549907 -0.0102381 0.0 
0.0177203 -0.00127045 0.0 
0.352846 -0.0025985 0.0 
7.98345e-05 -2.38013e-06 0.0 
0.606626 0.33795 0.0 
0.0532526 -0.00291667 0.0 
0.0934342 0.0186643 0.0 
0.689323 0.287437 0.0 
0.499316 -0.0123549 0.0 
0.360023 0.184433 0.0 
0.999962 0.00037899 0.0 
0.479102 -0.445234 0.0 
1.01263 -0.0469021 0.0 
0.771514 -0.083414 0.0 
0.212332 -0.0201264 0.0 
0.999897 -0.00248791 0.0 
0 0 0.0 
0.0020299 -0.000334315 0.0 
0.752019 -0.0523325 0.0 
0.00827511 -0.000942077 0.0 
0.0464497 -0.00713535 0.0 
0.0155183 0.0004828 0.0 
0.398134 -0.0306214 0.0 
3.53116e-133 -1.68462e-133 0.0 
0 0 0.0 
0.459309 -0.0127875 0.0 
1.00256 0.00114252 0.0 
0.377634 -0.00655704 0.0 
0.25716 0.00326675 0.0 
0.0189012 0.000232214 0.0 
0.268357 -0.0240344 0.0 
1.01056 0.00311362 0.0 
1.00546 0 0.0 
0.20871 0.0158883 0.0 
0.161407 -0.00296296 0.0 
0.00139319 -0.000110604 0.0 
0.463476 -0.00554388 0.0 
1.07024 0.118535 0.0 
0.25376 -0.0450151 0.0 
0.594028 -0.345374 0.0 
0.868513 -0.0977017 0.0 
0.0077068 -0.000627967 0.0 
1.00128 -0.00223226 0.0 
0 0 0.0 
0.223146 -0.0168222 0.0 
0 0 0.0 
1.0069 0.0136229 0.0 
7.22617e-46 7.11886e-47 0.0 
0.923112 -0.266379 0.0 
0.183325 -0.00826706 0.0 
2.11392e-84 1.76092e-85 0.0 
0.00550058 -0.000706143 0.0 
0.999885 0.00114804 0.0 
1.01103 -0.00418476 0.0 
0.782817 -0.0134602 0.0 
0.119194 -0.00307317 0.0 
0.239226 -0.266712 0.0 
0.952993 -0.0223572 0.0 
-1.3287e-182 -1.53681e-183 0.0 
0.999693 0.000207942 0.0 
0.845119 -0.00843842 0.0 
0.0414358 -0.00473817 0.0 
0.399375 0.0223239 0.0 
0 0 0.0 
0.00983125 0.000991441 0.0 
0.641217 0.0904367 0.0 
0.481423 0.0303277 0.0 
0.00099717 -8.93512e-05 0.0 
0.813364 0.0790321 0.0 
0.122445 0.0115555 0.0 
0.00793548 0.00070772 0.0 
0.390481 0.0348783 0.0 
0 0 0.0 
0.272394 -0.030079 0.0 
0.806529 0.250709 0.0 
0.0542521 -0.0017916 0.0 
1.0001 0.00194533 0.0 
3.66903e-260 3.45194e-261 0.0 
0.129914 -0.0129406 0.0 
0.928822 0.202421 0.0 
-8.19389e-237 6.0802e-238 0.0 
1.0109 0.00480016 0.0 
1.06426 -0.0801073 0.0 
0.966882 -0.0630962 0.0 
2.40193e-05 -3.23695e-06 0.0 
7.48865e-240 7.05115e-241 0.0 
0.948999 -0.0531608 0.0 
0.312471 0.267567 0.0 
0.507563 -0.0295573 0.0 
0.227765 0.00234434 0.0 
0.801491 -0.120433 0.0 
0.0149603 -0.00261531 0.0 
-2.50177e-103 2.50865e-104 0.0 
0.793115 0.342581 0.0 
0.00889072 0.000734497 0.0 
2.47073e-274 3.13619e-276 0.0 
0.586878 0.0718535 0.0 
0.475852 0.0422579 0.0 
1.06299 -0.103817 0.0 
1.00797 -0.000872492 0.0 
1.01572 -0.00969856 0.0 
0.630414 -0.0745616 0.0 
0.357601 0.171335 0.0 
0.609553 0.317157 0.0 
0.137211 0.0408142 0.0 
0.507023 0.0383848 0.0 
0.523488 0.0835391 0.0 
0.049347 -0.117318 0.0 
0.0819809 0.0050785 0.0 
0.166113 -0.0143058 0.0 
0 0 0.0 
1.00894 0.00758358 0.0 
1.01718 -0.0074726 0.0 
0 0 0.0 
0.655538 0.0606215 0.0 
1.01044 0.101272 0.0 
0.939281 0.0760701 0.0 
1.00113 0.000796128 0.0 
0 0 0.0 
1.00363 -0.0018904 0.0 
0.99436 0.0530974 0.0 
0 0 0.0 
0.015002 0.00143341 0.0 
0.871694 -0.282157 0.0 
1.00366 -0.0004998 0.0 
0 0 0.0 
0.19006 -0.019371 0.0 
7.96024e-48 1.28564e-48 0.0 
0.0096212 0.000792196 0.0 
0.120962 0.0247647 0.0 
0 0 0.0 
0 0 0.0 
0.00270751 -6.34311e-05 0.0 
1.00228 0 0.0 
8.36657e-62 7.52923e-63 0.0 
0.742578 -0.0651423 0.0 
0.182529 0.0243231 0.0 
0.682745 0.0135132 0.0 
0.227101 -0.0413993 0.0 
0.565932 0.0363063 0.0 
0.80107 -0.140016 0.0 
0.901713 -0.0107554 0.0 
0.164824 -0.0169082 0.0 
1.001 0.000483244 0.0 
-8.83457e-275 3.32357e-276 0.0 
0.00275214 -0.000424728 0.0 
1.00723 -0.0018149 0.0 
0.354568 -0.0332388 0.0 
0.0969912 -0.00713118 0.0 
0.993021 -0.00147383 0.0 
1.02256 -0.185216 0.0 
0.760853 0.19847 0.0 
1.00031 0.00294281 0.0 
0.877167 0.171318 0.0 
3.28034e-10 9.51027e-12 0.0 
0.494192 -0.100389 0.0 
0.0038889 -0.000581271 0.0 
1.00786 0 0.0 
1.00161 0.00127252 0.0 
0.59148 0.0593096 0.0 
0 0 0.0 
0.356482 0.00355956 0.0 
0.100172 0.0110921 0.0 
0.070316 -0.00683162 0.0 
1.08615 -0.166583 0.0 
1.00702 -0.00583421 0.0 
0.999761 -5.1153e-06 0.0 
0.999927 -0.000436341 0.0 
0.997797 -0.00994795 0.0 
1.00119 0.0837749 0.0 
1.00025 0.000298695 0.0 
0.00254735 -0.000460997 0.0 
0.222166 -0.140321 0.0 
0 0 0.0 
1.00004 -0.000130756 0.0 
1.0877 -0.137324 0.0 
0.965664 0.0731794 0.0 
0.360649 -0.0276207 0.0 
0.400963 0.034398 0.0 
0.0940906 0.00321849 0.0 
0 0 0.0 
0.992228 -0.0546253 0.0 
0.50505 0.0111478 0.0 
1.08409 0.205578 0.0 
0 0 0.0 
0.794584 0.0104935 0.0 
0.707879 -0.376686 0.0 
0.0388171 -0.00260341 0.0 
1.07455 -0.0985918 0.0 
1.35254e-06 -1.83596e-09 0.0 
1.03219 -0.0397072 0.0 
1.05604 0.00366862 0.0 
0.0667058 0.013111 0.0 
0.272588 0.0263252 0.0 
0.0941622 0.00260667 0.0 
1.05994 -0.0383676 0.0 
0.656642 -0.284615 0.0 
0 0 0.0 
0.61205 -0.0205276 0.0 
-1.23339e-63 1.22055e-64 0.0 
0.00950976 0.0121321 0.0 
0.468207 0.0364449 0.0 
-1.24858e-118 -2.50286e-119 0.0 
0.999638 8.44474e-06 0.0 
1.00326 -0.0107562 0.0 
1e-307 1e-307 0.0 
0.715453 -0.266155 0.0 
1.00002 0.000422239 0.0 
1.00725 0.000625769 0.0 
1.03433 0.017419 0.0 
1.00757 -0.000496056 0.0 
0.426568 -0.00293828 0.0 
7.29328e-17 5.83675e-18 0.0 
0.983168 -0.0258678 0.0 
0.0694154 -0.00515509 0.0 
0 0 0.0 
0.999946 0.000365231 0.0 
0.718491 0.338093 0.0 
0.524898 -0.0572247 0.0 
0 0 0.0 
0.649459 0.257658 0.0 
0.713547 0.271944 0.0 
0.442207 0.0100529 0.0 
0.0270822 -0.00115936 0.0 
1.08406 -0.184635 0.0 
1.00794 -0.000427664 0.0 
0.19326 0.0114851 0.0 
0 0 0.0 
0.770507 0.121962 0.0 
0.494317 0.0947526 0.0 
1.01286 -0.194357 0.0 
0.0542813 -0.0191616 0.0 
0.211611 0.0138845 0.0 
0.874225 0.115387 0.0 
0.315948 -0.0051461 0.0 
0.0948716 -0.14984 0.0 
0.457261 0.0252527 0.0 
0.999995 -0.000260361 0.0 
0.678393 0.242706 0.0 
0.0904485 -0.00356584 0.0 
1.12754e-05 1.18966e-06 0.0 
1.00108 0 0.0 
0.15667 0.0274019 0.0 
1.10565 0.130483 0.0 
0.711837 0.376445 0.0 
0.0392369 0.000517144 0.0 
0.0137337 0.00118334 0.0 
0.00969782 0.00110236 0.0 
0 0 0.0 
-1.21071e-33 -2.3972e-34 0.0 
0 0 0.0 
3.16181e-09 -3.35888e-10 0.0 
0.730035 0.309069 0.0 
1.00033 -0.000252275 0.0 
0.0200478 0.0345934 0.0 
0.858647 0.152847 0.0 
0.10025 0.0173895 0.0 
1.01049 0.0138979 0.0 
0 0 0.0 
0.607942 -0.290494 0.0 
0.370739 -0.0458846 0.0 
0.999767 9.05647e-07 0.0 
1.01999 -0.251923 0.0 
0.00672185 -0.00102541 0.0 
0.10822 0.0141863 0.0 
0 0 0.0 
0.0225406 0.00052168 0.0 
0.310941 0.0217844 0.0 
1.00178 -0.00257397 0.0 
0.553788 -0.0634835 0.0 
0.538795 0.100331 0.0 
0.509702 4.32225e-05 0.0 
0 0 0.0 
0.00728989 0.000438941 0.0 
0.136412 0.00581682 0.0 
1.00193 0.00141441 0.0 
0.425136 -0.122269 0.0 
1.00277 0.00765265 0.0 
0 0 0.0 
0.00387033 -0.000541583 0.0 
0.580639 -0.427898 0.0 
1.00804 -0.000170014 0.0 
1.0003 0 0.0 
0.0174191 -0.0385092 0.0 
0.449364 -0.0990533 0.0 
0.541836 -0.0326833 0.0 
0.843647 -0.0926831 0.0 
1.00372 -0.0455802 0.0 
1.02941 0.0290283 0.0 
0.170031 0.019227 0.0 
0.724818 0.0546603 0.0 
1.00239 0.0006662 0.0 
0.867287 -0.0112743 0.0 
0.067897 -0.00121668 0.0 
0.784073 0.366734 0.0 
0.837793 0.139913 0.0 
0.00733627 0.000656524 0.0 
1.00014 -0.00460452 0.0 
0.0340912 0.00739234 0.0 
0.00567115 -0.000843367 0.0 
0 0 0.0 
0 0 0.0 
0.871663 0.0858768 0.0 
0.471598 -0.0833748 0.0 
0.000283189 1.33707e-05 0.0 
0.483982 -0.0253922 0.0 
0.460325 -0.0432486 0.0 
1 0 0.0 
0.00584751 8.44935e-05 0.0 
0.762562 0.372677 0.0 
1.23978e-302 4.69673e-304 0.0 
0 0 0.0 
0.177987 0.131546 0.0 
0.00927185 5.20242e-05 0.0 
0.880582 -0.0357576 0.0 
0.0173813 0.000303458 0.0 
1.00882 0 0.0 
0.750601 0.277965 0.0 
0 0 0.0 
0.999772 1.54951e-05 0.0 
0.00853712 -0.0004614 0.0 
0 0 0.0 
0.992441 -0.00859518 0.0 
0.151687 0.0181464 0.0 
0.0141073 0.000806403 0.0 
1.00367 0 0.0 
0.00116552 -0.000116996 0.0 
0.791109 0.319222 0.0 
0.498252 0.107862 0.0 
0.75478 -0.229118 0.0 
0.166047 0.032011 0.0 
0.101803 -0.00108618 0.0 
0.0227519 -0.00119072 0.0 
0.490342 -0.0494459 0.0 
0.772606 0.364493 0.0 
0.748065 0.0642896 0.0 
0.000395166 1.56936e-05 0.0 
1.00088 0.00235155 0.0 
0.865397 0.352692 0.0 
1.00299 0.000359834 0.0 
0.490609 -0.171148 0.0 
0.817607 0.356132 0.0 
1.00013 0.00213797 0.0 
1.00829 -0.00763794 0.0 
0.94332 -0.335215 0.0 
0.57299 -0.0610595 0.0 
0.745565 -0.090509 0.0 
0.805496 -0.0817213 0.0 
1.00265 -0.000643228 0.0 
0 0 0.0 
0.14661 -0.0193432 0.0 
0.327802 0.0455417 0.0 
1.05263 0.102773 0.0 
0.978531 -0.0101914 0.0 
0 0 0.0 
0.488518 0.180374 0.0 
0.293215 0.00218499 0.0 
1.00877 0.00275352 0.0 
0.325316 0.0611843 0.0 
1.00956 -0.00396884 0.0 
0.874635 0.0150678 0.0 
0.255857 -0.000846284 0.0 
0.0478647 -0.0100055 0.0 
2.80048e-05 2.90102e-06 0.0 
0.999758 -7.18583e-05 0.0 
0.245794 -0.00487532 0.0 
1.00035 0.000260687 0.0 
0.81107 0.127647 0.0 
0.878729 -0.132433 0.0 
1.00732 0.00187467 0.0 
1.00903 0.000657723 0.0 
0.453667 -0.0475356 0.0 
-1.26586e-204 9.3932e-206 0.0 
0.131354 0.00873145 0.0 
0.198938 0.0107003 0.0 
0 0 0.0 
0.781315 0.137164 0.0 
0.00863837 0.000315122 0.0 
0.0151114 -0.00397064 0.0 
0.412075 -0.00418179 0.0 
0.306194 0.028651 0.0 
0.00509531 0.00037936 0.0 
0.800639 0.0740695 0.0 
1.00076 0 0.0 
1.56173e-07 -1.45064e-08 0.0 
0.695765 -0.447172 0.0 
0.768529 0.088322 0.0 
0.252213 0.0920287 0.0 
1.0059 0.00554202 0.0 
0 0 0.0 
0.217024 -0.00233142 0.0 
0.00177307 -0.000146053 0.0 
0.997033 0.00201184 0.0 
1.87092e-41 8.19757e-43 0.0 
0.771362 -0.289049 0.0 
1.02614 -0.289766 0.0 
0 0 0.0 
1.00214 -0.000546281 0.0 
1.01506 -0.00799279 0.0 
-4.3494e-54 4.30413e-55 0.0 
1.00272 0.00925534 0.0 
3.54447e-51 2.47296e-52 0.0 
1.00734 0.00248884 0.0 
1.00055 0.000271123 0.0 
0.0316234 -0.00178919 0.0 
0.860091 -0.142747 0.0 
1.01424 -0.00814953 0.0 
0.998869 0.000397094 0.0 
0.592412 0.0822325 0.0 
0.0447612 -0.0166883 0.0 
0.256228 -0.0136238 0.0 
0.00621059 -0.0100766 0.0 
0.106336 0.0194445 0.0 
4.36246e-17 -4.78247e-18 0.0 
0.999931 -0.000226901 0.0 
0.0397007 -0.00519361 0.0 
0 0 0.0 
0 0 0.0 
0.400898 -0.00290562 0.0 
-3.04777e-112 -3.25531e-115 0.0 
0.00839926 0.000576875 0.0 
0.018448 0.000918605 0.0 
0.90537 0.0290628 0.0 
0.86453 0.260608 0.0 
1.00255 0.00339527 0.0 
0 0 0.0 
0 0 0.0 
6.77888e-06 -8.05105e-07 0.0 
0.327179 -0.0216453 0.0 
2.243e-79 1.95643e-80 0.0 
0 0 0.0 
1.01638 -0.0177333 0.0 
0 0 0.0 
0.892064 -0.299755 0.0 
2.34356e-280 3.14308e-282 0.0 
0.966664 0.306225 0.0 
0.279982 0.0197364 0.0 
1.01488 -0.00599275 0.0 
0.0914875 -0.0038007 0.0 
0 0 0.0 
0.0797404 -0.0194717 0.0 
0.0193256 -0.000322402 0.0 
0.00107747 -0.000179974 0.0 
0 0 0.0 
0 0 0.0 
0 0 0.0 
1.05747 0.182134 0.0 
0.234796 -0.000148981 0.0 
1.00691 -0.265912 0.0 
0.345898 -0.0229088 0.0 
0.22771 0.0088759 0.0 
1.01114 0.00338509 0.0 
1.00052 0.00514698 0.0 
1.01858 -0.301657 0.0 
0.312849 -0.0125526 0.0 
0.166851 0.0444591 0.0 
0.941124 -0.101098 0.0 
0.468942 -0.00958205 0.0 
0.867609 0.0975354 0.0 
2.25962e-05 1.30541e-06 0.0 
0.355807 -0.00397381 0.0 
1.01215 -0.294446 0.0 
0.754173 0.22037 0.0 
0.238244 0.0190461 0.0 
0.179975 0.107259 0.0 
0.86727 -0.034397 0.0 
0.764271 0.305997 0.0 
0.0749528 7.03377e-05 0.0 
0 0 0.0 
0.0584464 -0.00286518 0.0 
1.00314 0.00297853 0.0 
0.999517 -0.000191973 0.0 
0.0159777 -0.00172572 0.0 
0 0 0.0 
0.323322 0.0774172 0.0 
0.979178 0.0154714 0.0 
0 0 0.0 
0.130462 -0.00932104 0.0 
1.08488 0.17031 0.0 
0.570211 -0.271894 0.0 
1.01485 0.0078786 0.0 
1.01071 0.256316 0.0 
0.726764 -0.0650065 0.0 
0.390717 -0.0188098 0.0 
0.867857 0.0329292 0.0 
0.999808 0.000922356 0.0 
0.933522 -0.0609577 0.0 
1.05576 0.0953255 0.0 
5.77509e-10 5.27016e-11 0.0 
0.0506849 0.00597575 0.0 
0.00569811 0.000498727 0.0 
1.00538 0 0.0 
0.608407 -0.462806 0.0 
0.257778 -0.0019865 0.0 
0.235387 0.00626028 0.0 
0.728589 0.192168 0.0 
9.37081e-23 -1.01181e-23 0.0 
0.679795 0.200397 0.0 
1.00789 0 0.0 
0.996096 -0.000633913 0.0 
0.181762 0.0119125 0.0 
0.00738122 -0.000302869 0.0 
0 0 0.0 
0.142852 0.0848289 0.0 
1.00175 0.0131576 0.0 
1.0091 0.00443887 0.0 
1.00501 -0.00246182 0.0 
0.0147718 0.000395256 0.0 
1.03638 -0.272782 0.0 
0.850648 -0.201024 0.0 
0.0850962 0.00132777 0.0 
0 0 0.0 
0.00553075 0.000559346 0.0 
0.0374851 -0.0152859 0.0 
-6.49716e-38 -8.2595e-38 0.0 
0 0 0.0 
0.0406087 0.00121604 0.0 
2.62943e-06 -3.07933e-07 0.0 
0.446603 -0.0100123 0.0 
1.09803 -0.104719 0.0 
5.66636e-15 9.55185e-15 0.0 
0.71857 0.358955 0.0 
0.868891 -0.0534044 0.0 
0.864354 0.0654703 0.0 
0.431121 0.156186 0.0 
1.00791 -0.00149661 0.0 
1.06115 0.220049 0.0 
0.209893 -0.00177708 0.0 