<VTKFile type="UnstructuredGrid" version="0.1" byte_order="LittleEndian">
  <UnstructuredGrid>
    <Piece NumberOfPoints="12982" NumberOfCells="25803">
      <Points>
        <DataArray type = "Float64" NumberOfComponents="3" format="ascii">
0 0 0.0 
14 0 0.0 
14 8 0.0 
0 8 0.0 
4.16782 4.09801 0.0 
4.8618 4.00908 0.0 
4.61929 4.05393 0.0 
4.06846 3.96135 0.0 
4.66845 4.0622 0.0 
4.09208 3.95602 0.0 
4.10943 4.04908 0.0 
4.33592 4.0755 0.0 
4.00069 3.99239 0.0 
4.42392 4.06654 0.0 
4.04003 3.97377 0.0 
3.96554 4.00011 0.0 
4.06274 3.97234 0.0 
4.39909 4.09376 0.0 
4.06139 4.09916 0.0 
4.35116 4.08274 0.0 
4.08907 3.96934 0.0 
4.01323 3.99894 0.0 
4.29276 4.03865 0.0 
4.25007 4.10489 0.0 
4.9169 3.99431 0.0 
5.05797 4.00005 0.0 
4.60585 4.05641 0.0 
3.85704 3.89698 0.0 
4.00962 4.08349 0.0 
4.27938 3.93548 0.0 
4.04837 4.00644 0.0 
4.03476 4.04592 0.0 
4.28999 4.04303 0.0 
2.80043 7.58706 0.0 
4.44382 4.06881 0.0 
3.77209 5.32338 0.0 
4.04832 4.05004 0.0 
5.1176 3.92154 0.0 
4.17759 3.97818 0.0 
4.20758 4.05475 0.0 
4.09533 4.03459 0.0 
4.00922 3.99881 0.0 
4.26307 3.96733 0.0 
4.64619 4.05201 0.0 
4.00844 4.00175 0.0 
4.36731 4.05544 0.0 
4.53982 4.10354 0.0 
5.1639 3.91995 0.0 
4.6997 4.01336 0.0 
3.93682 3.99751 0.0 
4.11094 4.03801 0.0 
4.45866 4.06757 0.0 
4.00337 3.99724 0.0 
4.19353 4.07857 0.0 
4.07859 3.96719 0.0 
4.41133 4.05012 0.0 
4.23389 3.95924 0.0 
4.05118 4.03479 0.0 
4.92113 4.01625 0.0 
4.02815 4.04832 0.0 
4.97922 4.00668 0.0 
3.91833 4.06784 0.0 
4.50482 4.06362 0.0 
4.8201 4.01499 0.0 
4.00048 4.01062 0.0 
3.13236 3.54819 0.0 
0.28507 1.30676 0.0 
5.01528 4.01133 0.0 
4.8286 4.02872 0.0 
4.96507 4.02144 0.0 
4.04195 3.99899 0.0 
4.21026 3.93615 0.0 
4.01647 3.99236 0.0 
4.11705 3.96908 0.0 
5.07022 3.97678 0.0 
7.0077 4.29338 0.0 
4.28029 3.95258 0.0 
4.21614 3.9804 0.0 
0 6.15459 0.0 
4.0192 3.99331 0.0 
4.87733 4.00819 0.0 
5.02579 4.01433 0.0 
4.97524 4.02614 0.0 
4.17785 3.95317 0.0 
4.59971 3.97848 0.0 
5.00785 4.00312 0.0 
10.8833 7.73481 0.0 
4.25807 4.05754 0.0 
14 6.11123 0.0 
4.09033 4.05486 0.0 
3.99379 4.00703 0.0 
3.96293 3.99513 0.0 
4.05291 3.93488 0.0 
4.38713 3.98212 0.0 
4.06552 4.04412 0.0 
4.96311 3.99741 0.0 
4.33218 4.06749 0.0 
3.88293 4.06948 0.0 
4.14007 4.05606 0.0 
4.23787 4.08599 0.0 
4.77719 4.01272 0.0 
4.00418 4.00381 0.0 
4.93851 4.1033 0.0 
5.03684 4.01469 0.0 
4.25802 4.06673 0.0 
4.00044 3.99614 0.0 
4.14647 3.96536 0.0 
4.36199 4.05276 0.0 
4.01297 3.9855 0.0 
3.91035 3.9607 0.0 
14 5.21618 0.0 
4.00327 3.99438 0.0 
7.38378 7.01513 0.0 
4.0339 4.05256 0.0 
4.28749 4.07809 0.0 
3.94943 3.96456 0.0 
7.31177 0.840293 0.0 
3.87643 4.3641 0.0 
4.96626 3.99827 0.0 
4.71312 3.98415 0.0 
4.29529 4.08944 0.0 
5.33625 3.77574 0.0 
4.8061 4.01146 0.0 
4.17776 3.96748 0.0 
4.69844 3.97803 0.0 
4.25617 3.96759 0.0 
5.07953 3.9655 0.0 
4.26345 5.24436 0.0 
4.18865 4.06346 0.0 
3.05817 4.59047 0.0 
4.02795 4.02976 0.0 
4.34569 4.08404 0.0 
5.05187 3.9579 0.0 
4.37798 8 0.0 
4.12623 4.0709 0.0 
4.08373 4.05666 0.0 
4.09568 4.05562 0.0 
4.05779 3.94742 0.0 
4.62072 3.96435 0.0 
4.27852 0 0.0 
5.04845 4.04311 0.0 
4.29262 4.07791 0.0 
4.91936 3.99303 0.0 
4.41186 3.97099 0.0 
3.92916 3.67166 0.0 
4.27352 3.92521 0.0 
4.00537 4.0127 0.0 
4.96555 3.95323 0.0 
4.70266 8 0.0 
4.34859 4.05902 0.0 
4.19767 3.93669 0.0 
13.3549 8 0.0 
5.12437 3.90419 0.0 
4.13425 4.07811 0.0 
4.22225 3.98357 0.0 
4.70522 3.98452 0.0 
5.52872 3.97338 0.0 
4.1741 4.07586 0.0 
3.99922 3.99464 0.0 
4.44039 4.06788 0.0 
4.89032 4.03847 0.0 
4.00791 4.00467 0.0 
3.92924 4.17117 0.0 
4.07233 3.96127 0.0 
3.86831 3.81664 0.0 
4.02651 3.98657 0.0 
3.91267 2.38613 0.0 
4.02873 4.0411 0.0 
4.2661 4.07493 0.0 
4.29787 4.08601 0.0 
4.08859 4.05676 0.0 
4.55332 4.06088 0.0 
4.4343 4.32954 0.0 
5.00199 3.99035 0.0 
4.12124 3.98374 0.0 
4.56747 3.97655 0.0 
4.0008 3.98691 0.0 
4.08226 3.93581 0.0 
4.17912 4.05461 0.0 
10.8039 4.54212 0.0 
4.24743 3.99271 0.0 
5.31581 5.88259 0.0 
4.99458 4.03862 0.0 
4.43736 4.06658 0.0 
4.57845 3.94402 0.0 
5.20803 3.95079 0.0 
4.1829 4.06659 0.0 
4.12635 4.07409 0.0 
0 1.4212 0.0 
5.11233 0.94049 0.0 
4.8762 4.04179 0.0 
4.18679 4.08465 0.0 
4.84049 4.02713 0.0 
4.00051 3.91421 0.0 
4.24569 4.05438 0.0 
4.06234 3.9498 0.0 
4.25777 4.07923 0.0 
4.9908 4.01037 0.0 
4.94061 3.91822 0.0 
4.0644 3.93891 0.0 
9.56317 4.86407 0.0 
4.16503 4.11076 0.0 
9.91836 3.08439 0.0 
4.23715 4.07498 0.0 
4.16148 3.94363 0.0 
4.19206 3.91938 0.0 
4.88044 0 0.0 
3.96023 4.01528 0.0 
4.09641 3.95124 0.0 
4.12454 3.92729 0.0 
4.96394 3.98814 0.0 
4.08491 4.0641 0.0 
3.96293 4.03138 0.0 
4.63291 3.98083 0.0 
4.06298 3.99231 0.0 
4.04611 3.97367 0.0 
4.23768 4.04493 0.0 
4.01202 4.00466 0.0 
4.21125 3.95113 0.0 
3.99252 4.00665 0.0 
4.32796 3.95892 0.0 
4.17636 4.06982 0.0 
4.01378 4.004 0.0 
3.93749 4.02683 0.0 
3.94066 3.96869 0.0 
4.02428 4.03941 0.0 
3.95819 3.97698 0.0 
4.48696 4.03418 0.0 
4.23702 3.98643 0.0 
4.23165 4.07938 0.0 
4.54783 4.09596 0.0 
4.15636 4.04974 0.0 
3.95778 3.98461 0.0 
4.33875 4.07747 0.0 
3.9419 3.97853 0.0 
6.48058 8 0.0 
4.19018 4.05306 0.0 
4.10081 3.94382 0.0 
4.11428 4.04884 0.0 
4.69463 4.07217 0.0 
4.5288 4.06271 0.0 
3.99651 4.05409 0.0 
4.41057 3.9716 0.0 
4.22913 4.08121 0.0 
5.00368 4.02219 0.0 
5.00671 4.01055 0.0 
3.9771 4.03148 0.0 
4.3528 3.94962 0.0 
4.67481 3.98258 0.0 
4.18715 4.07563 0.0 
4.15561 4.10177 0.0 
4.18309 4.12442 0.0 
3.96476 4.03852 0.0 
4.9291 3.96047 0.0 
4.04894 3.98467 0.0 
12.1222 6.79508 0.0 
4.87359 3.99098 0.0 
3.96822 4.02719 0.0 
3.97233 4.04194 0.0 
3.98573 3.91699 0.0 
4.64662 4.05241 0.0 
4.39482 4.03522 0.0 
4.39564 4.08373 0.0 
3.91091 3.82278 0.0 
4.20876 3.92492 0.0 
3.92251 4.00785 0.0 
4.73582 3.9668 0.0 
4.1832 4.06258 0.0 
4.94936 4.00966 0.0 
4.50049 4.1111 0.0 
4.23184 3.96595 0.0 
4.3089 4.04268 0.0 
4.00816 3.98824 0.0 
4.26923 4.06845 0.0 
4.3527 4.06185 0.0 
4.09891 4.09363 0.0 
3.94564 3.99975 0.0 
4.30181 4.08028 0.0 
2.44506 7.17875 0.0 
3.97807 4.03955 0.0 
5.0401 4.02083 0.0 
4.98371 4.01321 0.0 
4.29568 4.06956 0.0 
4.0062 4.04545 0.0 
4.52064 4.08001 0.0 
4.36005 4.05676 0.0 
7.56656 2.21648 0.0 
11.7013 4.10211 0.0 
4.27554 4.05011 0.0 
6.37238 6.5803 0.0 
4.20246 3.96596 0.0 
4.1384 3.95607 0.0 
4.87407 4.02163 0.0 
5.41925 4.06198 0.0 
4.5533 4.04791 0.0 
2.9308 8 0.0 
4.36894 4.08372 0.0 
4.05428 3.94079 0.0 
4.59169 3.99229 0.0 
13.5869 1.32349 0.0 
4.02341 4.03456 0.0 
4.62275 3.83577 0.0 
4.52724 7.41561 0.0 
5.05919 4.01855 0.0 
5.0587 3.96893 0.0 
6.09376 3.30458 0.0 
4.01706 3.99618 0.0 
2.88406 3.57685 0.0 
4.14581 4.04395 0.0 
4.00722 3.98979 0.0 
4.41806 4.06842 0.0 
4.19401 4.06251 0.0 
5.05372 3.98338 0.0 
4.51365 3.9763 0.0 
4.01075 4.00369 0.0 
4.42945 4.11984 0.0 
11.8856 5.40534 0.0 
1.24078 0.550265 0.0 
1.00301 3.05384 0.0 
4.92376 3.98861 0.0 
2.38032 0.204862 0.0 
4.09097 4.04812 0.0 
9.1005 7.43296 0.0 
4.35133 3.94576 0.0 
4.26148 3.94171 0.0 
4.45315 4.05747 0.0 
6.64043 6.6588 0.0 
4.27924 4.09923 0.0 
4.01517 4.03055 0.0 
4.81469 4.03091 0.0 
5.01567 4.00099 0.0 
4.56318 4.05866 0.0 
4.76276 3.98761 0.0 
4.02246 4.02836 0.0 
4.06103 3.9941 0.0 
3.99908 3.98836 0.0 
5.14793 4.17318 0.0 
4.12151 3.94609 0.0 
4.80044 3.96562 0.0 
4.77658 6.83191 0.0 
3.98822 4.0043 0.0 
4.93238 4.07823 0.0 
5.01588 4.10724 0.0 
4.34999 4.09249 0.0 
4.97222 4.02124 0.0 
4.19226 4.16572 0.0 
4.12673 3.95742 0.0 
4.3144 4.0529 0.0 
4.07925 4.04209 0.0 
4.2163 3.94824 0.0 
4.88626 4.02135 0.0 
4.22957 3.95099 0.0 
4.21179 4.08546 0.0 
8.0836 1.05344 0.0 
5.1327 4.04445 0.0 
4.14273 3.96691 0.0 
4.64886 4.11146 0.0 
4.41866 4.07884 0.0 
5.1301 4.62968 0.0 
4.67935 3.9828 0.0 
4.2655 3.94563 0.0 
4.30241 3.96818 0.0 
4.25898 4.13439 0.0 
3.99014 3.98454 0.0 
4.12408 3.94161 0.0 
3.94965 4.08939 0.0 
4.36513 4.0903 0.0 
4.2539 3.95122 0.0 
4.57894 1.01439 0.0 
4.71705 4.04526 0.0 
4.59557 3.98011 0.0 
4.2284 4.07124 0.0 
4.36761 4.08678 0.0 
4.98691 4.00388 0.0 
4.01104 3.98573 0.0 
4.66775 4.07119 0.0 
4.00996 3.98706 0.0 
4.38843 4.07641 0.0 
9.28793 6.2702 0.0 
4.04622 4.03243 0.0 
4.11166 4.05269 0.0 
4.0089 4.00797 0.0 
4.80134 3.96134 0.0 
4.24532 4.11643 0.0 
4.255 4.06008 0.0 
4.51983 4.11882 0.0 
4.41854 3.97174 0.0 
3.94009 3.99141 0.0 
5.50065 6.93147 0.0 
4.30211 3.98484 0.0 
4.5551 4.06086 0.0 
4.17983 4.0788 0.0 
3.9956 4.03796 0.0 
4.33836 3.99388 0.0 
4.2489 4.09629 0.0 
5.06347 3.99507 0.0 
4.23129 3.94568 0.0 
4.2295 4.0772 0.0 
4.32398 4.05563 0.0 
5.08198 4.04957 0.0 
4.29091 3.96765 0.0 
5.02947 4.00625 0.0 
3.47165 3.43278 0.0 
4.20849 3.96645 0.0 
4.76429 4.0556 0.0 
4.02482 3.96981 0.0 
4.2266 4.04317 0.0 
6.91256 3.08935 0.0 
5.2374 3.96679 0.0 
6.55465 3.01138 0.0 
4.50793 4.06259 0.0 
4.30969 2.21329 0.0 
4.5945 4.0583 0.0 
3.99883 4.01382 0.0 
4.1525 3.96202 0.0 
4.00325 3.99017 0.0 
4.08942 3.95104 0.0 
4.05538 3.9957 0.0 
0.808626 5.25399 0.0 
4.01165 4.04753 0.0 
6.24865 4.08448 0.0 
4.97988 4.00549 0.0 
4.20227 4.08039 0.0 
4.23985 4.08128 0.0 
3.99623 4.0615 0.0 
4.7468 4.04081 0.0 
6.74199 5.74511 0.0 
4.10203 3.95404 0.0 
4.0163 3.96924 0.0 
3.99752 4.02893 0.0 
3.9986 0 0.0 
4.26259 4.0847 0.0 
4.15582 4.07076 0.0 
4.35474 4.08038 0.0 
4.03513 3.9876 0.0 
4.18191 3.96303 0.0 
2.18452 1.43095 0.0 
4.22541 3.92155 0.0 
7.69612 2.66902 0.0 
5.15666 3.95294 0.0 
4.01204 4.00974 0.0 
4.85434 4.00885 0.0 
4.00325 3.99521 0.0 
4.24629 4.08892 0.0 
4.1343 4.04717 0.0 
4.13829 3.82511 0.0 
4.08637 3.98671 0.0 
8.1554 7.24604 0.0 
4.34634 4.12041 0.0 
4.00432 3.99827 0.0 
4.80608 4.06171 0.0 
13.1088 3.43087 0.0 
4.87605 4.02178 0.0 
6.58316 5.06327 0.0 
4.8722 4.05404 0.0 
4.00374 3.93898 0.0 
3.99882 3.99972 0.0 
4.12993 4.05036 0.0 
4.0911 3.98345 0.0 
4.14295 3.97632 0.0 
4.04204 3.97534 0.0 
8.87792 8 0.0 
4.88168 3.25666 0.0 
4.3867 4.07149 0.0 
5.0218 3.98124 0.0 
3.87298 4.1921 0.0 
4.65909 4.05089 0.0 
4.18442 4.04414 0.0 
4.0766 3.95386 0.0 
4.82894 3.99161 0.0 
5.10311 4.0306 0.0 
4.36051 4.07918 0.0 
4.54162 4.05023 0.0 
4.11372 4.05249 0.0 
4.74336 4.04108 0.0 
[...]
<PointData>
  <DataArray type = "Float64" Name="Vitesse" NumberOfComponents="3" format="ascii">
1 0 0.0 
1.00032 0 0.0 
0.999792 0 0.0 
1 0 0.0 
1.03173 0.173043 0.0 
-3.77379e-222 4.00559e-223 0.0 
0.000202846 -1.49246e-05 0.0 
0.59636 -0.106153 0.0 
0.122401 -0.0105633 0.0 
0.622277 -0.0816532 0.0 
-5.77542e-99 -1.28423e-99 0.0 
0.156405 0.0030582 0.0 
0.250246 -0.316474 0.0 
-1.20104e-21 1.79544e-23 0.0 
0.300581 -0.0729041 0.0 
0.646776 -0.057975 0.0 
0.111071 -0.0180202 0.0 
0.513976 0.00417651 0.0 
0.993866 0.25655 0.0 
0.314151 0.00507974 0.0 
0.0847611 -0.00770709 0.0 
0 0 0.0 
1e-307 1e-307 0.0 
0.951146 0.0977762 0.0 
0.00804815 0.000425476 0.0 
0.0988668 0.00706282 0.0 
0.0127123 -0.00102923 0.0 
0.915484 -0.0614677 0.0 
0.882236 0.244477 0.0 
0.653539 -0.013473 0.0 
0 0 0.0 
0.789699 0.32726 0.0 
1e-307 1e-307 0.0 
1.00352 0.00104559 0.0 
0.039293 -0.00102916 0.0 
1.00925 0.0157404 0.0 
0.77252 0.284052 0.0 
0.728988 0.0366292 0.0 
0 0 0.0 
0 0 0.0 
0 0 0.0 
0 0 0.0 
0.0169733 0.000708102 0.0 
0.00778936 -0.00079156 0.0 
0 0 0.0 
0 0 0.0 
0.632476 -0.0165895 0.0 
0.741424 0.0349904 0.0 
-7.32935e-199 -6.88505e-200 0.0 
0.764168 -0.0383159 0.0 
0 0 0.0 
0.0285936 -0.00143065 0.0 
8.91127e-143 -4.25148e-143 0.0 
0.572199 0.0737103 0.0 
0.246657 -0.0336578 0.0 
-7.93038e-308 1e-307 0.0 
0.184296 -0.00011468 0.0 
3.90981e-08 1.30333e-08 0.0 
0.00448305 -0.000623861 0.0 
0.837806 0.357559 0.0 
0.00418688 -0.000754213 0.0 
0.842859 0.0765979 0.0 
0.00976092 -0.000807028 0.0 
-6.61896e-104 5.99172e-105 0.0 
0.170879 0.189648 0.0 
0.988614 -0.00896173 0.0 
1.00001 -0.000204 0.0 
0.0389012 -0.0120477 0.0 
1.20724e-05 -1.47152e-06 0.0 
0.0438464 -0.00646146 0.0 
0 0 0.0 
0.743567 -0.0361312 0.0 
0 0 0.0 
1.36606e-08 -3.28871e-10 0.0 
0.246324 0.0240016 0.0 
1.00458 0.00185784 0.0 
0.309064 -0.000186651 0.0 
-8.73721e-226 -8.20391e-227 0.0 
1 0 0.0 
0 0 0.0 
1.96184e-81 -2.47455e-82 0.0 
0.0537514 -0.011517 0.0 
0.0707429 -0.0105802 0.0 
0.395366 -0.0168173 0.0 
0.016029 0.000948092 0.0 
0.0251791 -0.00463046 0.0 
1.00005 -9.38213e-05 0.0 
4.22816e-157 2.33311e-158 0.0 
0.999805 3.30751e-05 0.0 
0.464642 0.118556 0.0 
0.253769 0.0714599 0.0 
0.671753 -0.0816465 0.0 
1.05522 -0.245221 0.0 
-2.38973e-45 -1.50861e-46 0.0 
0.294058 0.0813409 0.0 
0.00026828 2.29144e-05 0.0 
1.9937e-09 4.3785e-11 0.0 
0.870929 0.050475 0.0 
0.0500803 0.00619244 0.0 
0.610263 0.058039 0.0 
-1.13853e-134 1.12819e-135 0.0 
2.70973e-96 1.61047e-96 0.0 
0.703493 -0.0487704 0.0 
0.0646284 -0.00947511 0.0 
4.83618e-09 2.43835e-10 0.0 
0.0790372 -0.153961 0.0 
0.0898779 -0.00526361 0.0 
-6.07581e-303 4.98366e-305 0.0 
0.119131 -0.056829 0.0 
0.844748 -0.0719036 0.0 
0.999843 8.4108e-05 0.0 
2.72907e-109 -1.30199e-109 0.0 
1.00536 -0.00276899 0.0 
0.869285 0.34727 0.0 
0.275553 0.0110703 0.0 
0.794892 -0.130611 0.0 
1.00662 0.0014781 0.0 
0.984197 0.0633689 0.0 
-4.50984e-13 -7.78895e-15 0.0 
0.0134974 0.000785613 0.0 
0.550769 0.0319265 0.0 
1.02025 0.023203 0.0 
-4.70033e-106 4.25492e-107 0.0 
1.80385e-10 -1.8092e-11 0.0 
0.0684964 0.00321778 0.0 
0.0123745 4.79775e-05 0.0 
0.346948 0.0287809 0.0 
1.01964 0.0142919 0.0 
0.0868176 0.0169904 0.0 
0.991503 0.0113898 0.0 
0.284674 0.138023 0.0 
0.349277 0.00724228 0.0 
0.408033 0.0321609 0.0 
1.00771 0 0.0 
0.720741 0.145033 0.0 
0.614203 0.164451 0.0 
0.440168 0.108145 0.0 
1.02155 -0.236026 0.0 
0.189168 0.00766549 0.0 
1.00614 0 0.0 
0.208285 -0.0274914 0.0 
0.261176 0.0111136 0.0 
0.0216443 0.00143573 0.0 
0.0176932 0.000881499 0.0 
0.991701 -0.0625533 0.0 
0.834494 -0.0276837 0.0 
0.0632154 0.0656713 0.0 
0.429808 0.0216328 0.0 
1.00824 0 0.0 
-4.72082e-236 -6.33076e-238 0.0 
0.757958 -0.0415876 0.0 
0.999793 0 0.0 
0.840886 0.0361331 0.0 
0.854544 0.16908 0.0 
-2.74279e-223 -2.57538e-224 0.0 
0.00476401 0.000567603 0.0 
0.459091 0.0115686 0.0 
0.58378 0.0831045 0.0 
0.198158 -0.293672 0.0 
0.022394 -0.000648765 0.0 
0.0887742 -0.0105455 0.0 
0 0 0.0 
0.932306 0.105216 0.0 
0.566 -0.0953298 0.0 
0.951871 -0.0694412 0.0 
-2.80705e-51 1.10553e-51 0.0 
1.00763 -0.00976904 0.0 
0.735937 0.331453 0.0 
0.228112 0.0135409 0.0 
0.462153 0.0247226 0.0 
0.563426 0.14606 0.0 
0.0166387 -0.000627783 0.0 
1.08737 0.0378752 0.0 
0.0935992 0.0169361 0.0 
0 0 0.0 
0.0225128 0.00131575 0.0 
0.515337 -0.444153 0.0 
1.06246 -0.19274 0.0 
0 0 0.0 
0.999004 0.000484406 0.0 
0 0 0.0 
1.01476 -0.00128919 0.0 
0.15296 -0.021751 0.0 
6.71871e-05 2.25693e-06 0.0 
0.436753 0.0116423 0.0 
0.513655 0.0285491 0.0 
0.223926 0.0263698 0.0 
0.804961 0.165274 0.0 
1 0 0.0 
1.00835 -0.000988729 0.0 
0.101329 -0.0117668 0.0 
0.763469 0.107335 0.0 
7.65555e-05 -7.81606e-06 0.0 
0.945471 -0.207567 0.0 
1.16865e-223 1.11567e-224 0.0 
0.977613 -0.213045 0.0 
0.370311 0.0274022 0.0 
0.020512 -0.00551701 0.0 
0.745313 0.0270744 0.0 
1.06079 -0.22781 0.0 
0.9975 -0.00032674 0.0 
1.09321 0.185542 0.0 
0.999853 0.00204926 0.0 
0.299743 0.0247423 0.0 
0.692779 -0.0490632 0.0 
1.0193 -0.0780406 0.0 
1.00727 0 0.0 
0.679101 0.025815 0.0 
0.753601 -0.101893 0.0 
1.05457 -0.134572 0.0 
0.0886403 0.00487735 0.0 
0.828073 0.226765 0.0 
0.707804 0.0969251 0.0 
0.00726973 0.000620543 0.0 
0 0 0.0 
0.216314 -0.0372678 0.0 
-3.83123e-301 -6.12557e-302 0.0 
0 0 0.0 
0.395756 -0.00977234 0.0 
0.283952 0.0475415 0.0 
0.181667 0.0026178 0.0 
0.373134 0.048121 0.0 
0 0 0.0 
0.76929 0.038052 0.0 
0.798103 -0.105567 0.0 
0.731692 0.347402 0.0 
0.743354 -0.134492 0.0 
1e-307 1e-307 0.0 
-3.51254e-215 -3.30161e-216 0.0 
0.448205 0.0409044 0.0 
0.516052 -0.0179881 0.0 
0 0 0.0 
0.720692 -0.111849 0.0 
0.201685 0.00336207 0.0 
0.775961 -0.0904064 0.0 
1.00735 0 0.0 
0 0 0.0 
0.91548 -0.131362 0.0 
7.40472e-110 1.6008e-110 0.0 
0.251355 -0.0195936 0.0 
0.0172725 -0.00179482 0.0 
0.778701 0.263286 0.0 
0.00844869 0.000637427 0.0 
0.509165 0.048808 0.0 
0.0665181 -0.0179539 0.0 
0.0305256 -0.0142041 0.0 
0.662833 0.15618 0.0 
0.34661 0.0037619 0.0 
0.00944561 0.000649244 0.0 
0.511614 0.0671028 0.0 
1.06939 0.192141 0.0 
1.10804 0.168627 0.0 
0.725181 0.122235 0.0 
0.343508 0.015345 0.0 
6.55534e-167 -4.86433e-168 0.0 
0.999746 -5.86765e-05 0.0 
0.0198607 0.000606765 0.0 
0.674606 0.10042 0.0 
0.722791 0.15689 0.0 
0.919526 -0.194743 0.0 
0.0113689 -0.00104132 0.0 
1e-307 1e-307 0.0 
0.31111 -0.00142135 0.0 
0.954507 -0.0874942 0.0 
0.934574 -0.0573594 0.0 
0.793766 -0.00981412 0.0 
0.203964 0.00862602 0.0 
0.0810143 0.00743504 0.0 
-9.16154e-15 1.49344e-15 0.0 
0.754188 -0.0079315 0.0 
0.0394671 2.82327e-05 0.0 
1e-307 1e-307 0.0 
0.133339 -0.0778616 0.0 
0.0345032 0.00098685 0.0 
-4.74298e-253 -6.67954e-255 0.0 
1.04739 0.250718 0.0 
0.737159 -0.0386065 0.0 
0.311062 0.0151223 0.0 
1.00264 0.00187633 0.0 
0.702487 0.17879 0.0 
0.0818858 -0.0143809 0.0 
0.0242715 -0.00487553 0.0 
0.0432897 0.00535552 0.0 
0.763781 0.328397 0.0 
0.257524 -0.01149 0.0 
-1.34294e-235 -1.79887e-237 0.0 
1.0066 0.00601259 0.0 
0.999576 0.000532582 0.0 
0 0 0.0 
1.00888 -0.00317471 0.0 
0.0350144 -0.00105032 0.0 
0.404986 -0.0276538 0.0 
3.40608e-05 -2.05305e-06 0.0 
0.529403 -0.0246256 0.0 
0 0 0.0 
1.00387 0 0.0 
0.324746 0.00338259 0.0 
1.0548 -0.249558 0.0 
1.04663e-65 6.16113e-67 0.0 
1.0003 0.000180552 0.0 
0.613823 0.305172 0.0 
1.06656 -0.000873425 0.0 
1.00834 0.00103511 0.0 
0.0916375 -0.0097745 0.0 
0.308241 0.0283662 0.0 
1.01101 0.00556625 0.0 
0 0 0.0 
0.991134 -0.00429517 0.0 
0 0 0.0 
-5.18591e-53 2.47402e-53 0.0 
0.0162921 -0.000996799 0.0 
0.0292412 0.00218618 0.0 
0.185325 0.0213932 0.0 
0.000386376 5.1073e-05 0.0 
0 0 0.0 
0.912044 0.0167967 0.0 
0.999542 8.83334e-05 0.0 
1.00047 -0.000439575 0.0 
0.999658 -0.000678996 0.0 
0.0648877 0.00332885 0.0 
1.00189 -0.000347992 0.0 
0.130983 0.0359763 0.0 
1.00141 -0.000879252 0.0 
0.415752 0.00288835 0.0 
0.549638 -0.0103315 0.0 
-8.18708e-55 1.22376e-56 0.0 
1.00794 -0.00331832 0.0 
0.798738 0.0620837 0.0 
0.606494 0.33783 0.0 
-1.15543e-14 1.25579e-15 0.0 
0.0449624 0.00268359 0.0 
0.000236063 -1.07162e-05 0.0 
-2.08013e-19 -2.52001e-20 0.0 
0.359987 0.184411 0.0 
0 0 0.0 
0.479293 -0.445569 0.0 
1.01307 -0.0474059 0.0 
0.771509 -0.0834121 0.0 
0.241463 0.0103775 0.0 
1.01006 0.00152885 0.0 
0.377004 -0.0342446 0.0 
0.457083 -0.0376762 0.0 
0.754551 -0.0529289 0.0 
0.53447 0.0153947 0.0 
0.0468926 -0.0072035 0.0 
1.09607 0.143529 0.0 
0.398146 -0.0307158 0.0 
1e-307 1e-307 0.0 
-2.65729e-191 -7.10415e-192 0.0 
0.459697 -0.0123087 0.0 
0.00377021 -0.000575608 0.0 
0.377729 -0.00586355 0.0 
0.686266 0.0809908 0.0 
1.00497 0.00211072 0.0 
0.270801 -0.0243447 0.0 
0.0475431 -0.000138945 0.0 
0.734432 -0.0293592 0.0 
0.211445 -0.00291516 0.0 
1.03227 -0.0153445 0.0 
0.00927178 0.000292576 0.0 
0.463375 -0.00575808 0.0 
0.0147652 0.000464326 0.0 
1.12279 0.116199 0.0 
0.594179 -0.345738 0.0 
0.868541 -0.0977118 0.0 
0.854586 0.130042 0.0 
0.471069 0.00894514 0.0 
0.352463 -0.00263845 0.0 
1.0076 -0.00204944 0.0 
0.0124411 -0.00176633 0.0 
6.9202e-09 6.66112e-10 0.0 
0.208898 0.0159016 0.0 
0.392522 0.00556985 0.0 
0.00118916 -0.000147934 0.0 
0.201342 -0.122524 0.0 
0.221947 -0.0169015 0.0 
0.131733 -0.084087 0.0 
0.162076 -0.00326486 0.0 
0.999817 -0.00207491 0.0 
2.21993e-08 8.36371e-09 0.0 
0.126798 0.0267228 0.0 
0 0 0.0 
0.287459 0.0120186 0.0 
1.0705 0.11846 0.0 
0 0 0.0 
0.846003 -0.008616 0.0 
0.00969972 0.00052037 0.0 
0.761178 -0.057423 0.0 
1.01006 -0.000499748 0.0 
0 0 0.0 
0.0177737 -0.00139932 0.0 
0.641568 0.090526 0.0 
0.68918 0.287177 0.0 
-8.49849e-201 -7.99966e-202 0.0 
0.813779 0.0790101 0.0 
0.122735 0.0114548 0.0 
0.499442 -0.0118023 0.0 
0.390793 0.0348998 0.0 
0 0 0.0 
0.274823 -0.0305226 0.0 
0.0205754 0.000465979 0.0 
0.0545154 -0.00190755 0.0 
0.989487 -0.0193979 0.0 
0.0226189 0.000653869 0.0 
0.130815 -0.0130176 0.0 
0.791601 -0.295042 0.0 
-6.05817e-301 -9.68611e-302 0.0 
1.00997 0.00748842 0.0 
0.400075 0.0227028 0.0 
1.01035 0.00375085 0.0 
0.00117898 2.26822e-06 0.0 
1.01042 -0.00724189 0.0 
0.022775 -0.00233348 0.0 
0.312331 0.267278 0.0 
0.183344 -0.0082788 0.0 
0.278134 -0.255598 0.0 
0.801549 -0.120427 0.0 
0 0 0.0 
0.999886 0.00114867 0.0 
0.792961 0.342381 0.0 
0.791611 -0.0134097 0.0 
0.00194526 -0.000298003 0.0 
0.587233 0.0718976 0.0 
0.476213 0.0422802 0.0 
0.806413 0.250492 0.0 
0.00614034 -0.000519679 0.0 
1.00879 -0.00678618 0.0 
0.63045 -0.0745236 0.0 
0.877203 -0.384653 0.0 
0.609391 0.316866 0.0 
1.00552 0 0.0 
0.507459 0.038385 0.0 
0.523773 0.0837581 0.0 
0.257748 0.00325748 0.0 
7.72765e-194 -5.73423e-195 0.0 
0.119077 -0.00312477 0.0 
1.00127 -0.00221399 0.0 
0.949049 -0.0529746 0.0 
1.00709 0.00841336 0.0 
0.482166 0.0304226 0.0 
0 0 0.0 
-3.31695e-103 3.0026e-104 0.0 
2.95396e-109 -1.40928e-109 0.0 
0.658483 0.0608263 0.0 
0 0 0.0 
1.06313 -0.10386 0.0 
0 0 0.0 
1.00319 -0.00182101 0.0 
0.994885 0.0530112 0.0 
0 0 0.0 
0.215749 -0.020329 0.0 
0.999969 0.000327907 0.0 
4.29509e-05 -2.86505e-06 0.0 
1.01052 -0.00923118 0.0 
0.19127 -0.0195438 0.0 
0.923272 -0.266551 0.0 
0.0493775 -0.117574 0.0 
2.4464e-195 4.17605e-196 0.0 
0 0 0.0 
0 0 0.0 
0.158378 -0.0397014 0.0 
1.00199 0 0.0 
1.02916 -0.00204413 0.0 
0.0623329 -0.00199327 0.0 
0.18268 0.0243121 0.0 
0.939246 0.0759078 0.0 
0.00823577 -0.000531557 0.0 
0 0 0.0 
0.801129 -0.140015 0.0 
-1.73536e-39 -9.00884e-41 0.0 
0.166466 -0.0172568 0.0 
0.228197 0.002325 0.0 
8.33204e-232 -3.13452e-233 0.0 
0.0946519 0.0188833 0.0 
0.00523789 -0.000692957 0.0 
0.35461 -0.0331265 0.0 
0.0970396 -0.00714156 0.0 
1.00228 0.00104658 0.0 
-4.22758e-13 -2.74731e-14 0.0 
0.760755 0.198233 0.0 
1.00012 0.00170171 0.0 
0.270239 0.0225549 0.0 
0.742635 -0.0651892 0.0 
0.510754 -0.0298229 0.0 
0.0127736 -0.000964464 0.0 
0.855825 0.0131944 0.0 
-1.79688e-231 -2.33541e-233 0.0 
0.591861 0.0593323 0.0 
0 0 0.0 
0.357052 0.00344563 0.0 
0.00892637 0.000649394 0.0 
1.06347e-08 9.29991e-10 0.0 
1.0863 -0.166612 0.0 
1.02272 -0.185244 0.0 
0.999782 -3.33622e-06 0.0 
0 0 0.0 
0.357588 0.171317 0.0 
1.01714 -0.00788407 0.0 
1.00022 0.000259278 0.0 
1.01078 0.101213 0.0 
0.0133583 0.000574515 0.0 
0.999733 0.000181501 0.0 
1.01103 -0.00402822 0.0 
0.0145144 0.0011502 0.0 
0.901708 -0.0109133 0.0 
0.363649 -0.0277113 0.0 
0.401289 0.0344179 0.0 
0.00728866 -0.000905496 0.0 
0 0 0.0 
0.992213 -0.0545016 0.0 
0.505016 0.0107793 0.0 
0.99972 0.000903378 0.0 
0 0 0.0 
0.794419 0.0104257 0.0 
0.708065 -0.377 0.0 
1.00113 0.000794212 0.0 
1.07469 -0.0985625 0.0 
1.06435 -0.080186 0.0 
-1.70421e-221 -1.60019e-222 0.0 
1.05609 0.00369424 0.0 
1.00088 0.000429342 0.0 
0.272802 0.0263239 0.0 
0.16542 -0.0142764 0.0 
0.00866181 -0.00102622 0.0 
0.656772 -0.284942 0.0 
0 0 0.0 
1.00768 -0.000899625 0.0 
0.871855 -0.282364 0.0 
0.99304 -0.00145382 0.0 
0.468593 0.0364637 0.0 
0.991732 -0.00727294 0.0 
0.100239 0.011136 0.0 
0.99968 1.36192e-05 0.0 
1.0077 -0.0108159 0.0 
0.0397153 -0.00253342 0.0 
0.715583 -0.266449 0.0 
1.00002 0.000366004 0.0 
0.682617 0.0134224 0.0 
0.965636 0.0730212 0.0 
0.566624 0.0363299 0.0 
-3.75205e-197 -3.53262e-198 0.0 
0.00894779 0.000657587 0.0 
0.018596 0.00130243 0.0 
0.983071 -0.0258878 0.0 
1.02441 -0.014284 0.0 
0 0 0.0 
0.0414538 -0.00474126 0.0 
0.718328 0.337856 0.0 
0.524934 -0.057176 0.0 
1.03204 -0.0402497 0.0 
0.649327 0.257376 0.0 
0.713413 0.271692 0.0 
2.24015e-05 -2.95024e-06 0.0 
3.11221e-79 -3.92556e-80 0.0 
0 0 0.0 
0.0038694 -0.000556951 0.0 
0.49421 -0.100774 0.0 
0 0 0.0 
0.770753 0.122065 0.0 
0.494528 0.0942615 0.0 
0.443063 0.0100261 0.0 
0.0110865 0.000390486 0.0 
0.212311 0.0138804 0.0 
1.00778 0 0.0 
0.316216 -0.00446334 0.0 
0.0186214 0.00108879 0.0 
0.457706 0.0252594 0.0 
0.999995 -0.000257896 0.0 
0.678269 0.242436 0.0 
0.0904043 -0.00358283 0.0 
0.123432 0.0252749 0.0 
1.00107 0 0.0 
0 0 0.0 
1.10584 0.130392 0.0 
0.711663 0.376243 0.0 
1.00328 -0.000479407 0.0 
0.00626976 -3.13998e-05 0.0 
0.876993 0.171084 0.0 
0 0 0.0 
1.01408 0.00167009 0.0 
0 0 0.0 
0.966892 -0.0633847 0.0 
0.729886 0.30883 0.0 
1.00033 -0.000250552 0.0 
1.0131 -0.194405 0.0 
-9.7178e-18 5.83631e-19 0.0 
0.873871 0.115151 0.0 
1.00685 -0.0019188 0.0 
0.094928 -0.149944 0.0 
0.608069 -0.290846 0.0 
0.0197371 0.000943996 0.0 
1.00704 -0.00591105 0.0 
1.02018 -0.251997 0.0 
0.0070139 -0.00100768 0.0 
1.03424 0.0171986 0.0 
0 0 0.0 
1.00687 0.0136141 0.0 
1.00004 -0.000129859 0.0 
1.00177 -0.00255668 0.0 
0.553827 -0.0634529 0.0 
0.538544 0.100087 0.0 
0.858336 0.152482 0.0 
0 0 0.0 
0.0809908 0.0336517 0.0 
1.00694 0.000686632 0.0 
-5.38471e-20 -4.41719e-21 0.0 
0.425156 -0.122689 0.0 
1.08413 0.205629 0.0 
0 0 0.0 
0 0 0.0 
0.580829 -0.428265 0.0 
0.000709146 3.60901e-05 0.0 
1.0003 0 0.0 
5.23953e-07 -6.07178e-08 0.0 
0.449376 -0.0994597 0.0 
0.541827 -0.0330386 0.0 
0.999601 0.00256549 0.0 
0.613278 -0.0206133 0.0 
1.00724 -0.00050312 0.0 
0.06477 -0.00151279 0.0 
0.725326 0.0546511 0.0 
1.00142 0.00114281 0.0 
0.855094 -0.0131754 0.0 
0.0682667 -0.00136622 0.0 
0.783912 0.366552 0.0 
0.837956 0.139988 0.0 
0.136777 0.00555953 0.0 
0.0353008 0.00645956 0.0 
0.99991 -0.000365078 0.0 
1.05998 -0.0389279 0.0 
6.17316e-11 1.28475e-12 0.0 
0 0 0.0 
0.0711583 -0.00685977 0.0 
0.471612 -0.0833703 0.0 
0.158684 0.0265854 0.0 
0.869134 0.08462 0.0 
0.460287 -0.0431441 0.0 
0.311147 0.0217628 0.0 
1 0 0.0 
0.000138303 -4.63357e-06 0.0 
0.762407 0.372514 0.0 
-1.16926e-259 -4.42957e-261 0.0 
0 0 0.0 
0.843729 -0.0928479 0.0 
0.0153411 0.000537559 0.0 
7.26411e-05 -5.09639e-06 0.0 
0.017141 0.000350779 0.0 
1.00862 0 0.0 
0.750468 0.277731 0.0 
0 0 0.0 
0.999794 1.23669e-05 0.0 
0.00290718 -0.00049916 0.0 
0.928608 0.202222 0.0 
0.992475 -0.00861257 0.0 
0.151825 0.0181613 0.0 
0.00749696 0.000385909 0.0 
1.00334 0 0.0 
1.87821e-06 -6.63651e-07 0.0 
0.790964 0.319013 0.0 
1e-307 0 0.0 
-4.82945e-306 -7.72157e-307 0.0 
0.166893 0.0314021 0.0 
0.999946 0.000366457 0.0 
1.08422 -0.184682 0.0 
0.490348 -0.0493532 0.0 
0.772471 0.364359 0.0 
0.748025 0.06404 0.0 
1.0079 -0.000371092 0.0 
1.00088 0.00234927 0.0 
0.865267 0.352555 0.0 
0.0151314 -0.00264304 0.0 
0.490629 -0.17116 0.0 
0.817455 0.355954 0.0 
4.21093e-05 2.05592e-06 0.0 
1.00787 -0.00869247 0.0 
0.943641 -0.335195 0.0 
0.57299 -0.060986 0.0 
0.745594 -0.0904706 0.0 
0.805518 -0.0817428 0.0 
0.0075568 -0.00123575 0.0 
0.4865 -0.0257374 0.0 
0.147898 -0.0195418 0.0 
0.328259 0.0457702 0.0 
1.05295 0.102697 0.0 
0.00254037 -5.26346e-05 0.0 
0 0 0.0 
0.488522 0.180368 0.0 
0.293743 0.0020807 0.0 
0.121085 0.0249388 0.0 
0.325646 0.061125 0.0 
0.0208482 -0.00136922 0.0 
0.0601921 0.0120682 0.0 
0 0 0.0 
0.0483527 -0.01007 0.0 
1.00113 0.00700437 0.0 
0.999787 4.78814e-07 0.0 
1.00798 -0.00013225 0.0 
0 0 0.0 
0.811005 0.127428 0.0 
0.0393416 0.000453025 0.0 
1.72504e-05 -3.44702e-06 0.0 
1.00118 0.0836058 0.0 
0.453712 -0.0474935 0.0 
0.426745 -0.00305739 0.0 
0.131594 0.0085384 0.0 
0.0102133 0.00102 0.0 
1.02928 0.0287915 0.0 
1.00014 -0.004587 0.0 
0.781245 0.136932 0.0 
0.128503 0.0242877 0.0 
0.99592 -0.015561 0.0 
0.137238 0.0408208 0.0 
1.00171 0.00127536 0.0 
0.0550658 -0.00300296 0.0 
0.800596 0.0738457 0.0 
1.00067 0 0.0 
0.370714 -0.045877 0.0 
0.695983 -0.447487 0.0 
0.768479 0.0880831 0.0 
0.0874326 0.0280957 0.0 
1.76751e-08 -6.05783e-09 0.0 
0 0 0.0 
0.217397 -0.00245118 0.0 
0.098331 0.0403288 0.0 
0.106563 0.00166866 0.0 
0.498488 0.107835 0.0 
0.771513 -0.289317 0.0 
0.102462 -0.00128374 0.0 
1.00894 0.014921 0.0 
1.00185 -0.000499853 0.0 
0.00529057 -0.000676571 0.0 
0.017414 -0.038697 0.0 
0.411721 -0.00437161 0.0 
1.0049 -0.0456464 0.0 
3.43828e-05 -6.11041e-06 0.0 
0.246187 -0.00516352 0.0 
1.00734 0.00183149 0.0 
1.00238 0.000664412 0.0 
0.860157 -0.142935 0.0 
0.257548 -0.000260855 0.0 
1.02635 -0.289894 0.0 
0.592354 0.0819111 0.0 
0.0452121 -0.0168114 0.0 
0.258557 -0.0133737 0.0 
0.999902 0.00223126 0.0 
0.00952143 0.012055 0.0 
0.00557269 -0.000397572 0.0 
0.197616 0.0106733 0.0 
1e-307 0 0.0 
-8.25851e-303 4.24773e-304 0.0 
1.02447 -0.0105291 0.0 
0.400979 -0.00314063 0.0 
0.0225176 0.000515509 0.0 
-3.35524e-261 -1.81824e-262 0.0 
0.306453 0.028654 0.0 
1.00846 0.00313885 0.0 
1.00479 0.00566741 0.0 
0.864557 0.260558 0.0 
0.000168777 -8.92065e-06 0.0 
0 0 0.0 
0 0 0.0 
1.00934 -0.00416763 0.0 
0.328336 -0.0218936 0.0 
0 0 0.0 
0.138672 0.00706122 0.0 
0.999777 -5.74383e-05 0.0 
0 0 0.0 
0.89224 -0.299954 0.0 
1.00031 0.000227317 0.0 
0.966593 0.306121 0.0 
1.12328e-161 -8.33518e-163 0.0 
0.878805 -0.132597 0.0 
0.00605765 0.000112505 0.0 
0 0 0.0 
9.2973e-126 1.79183e-126 0.0 
1.00889 0.000849728 0.0 
0 0 0.0 
0 0 0.0 
0 0 0.0 
0.0151537 -0.00397519 0.0 
0.222222 -0.140371 0.0 
0.235052 -7.92811e-05 0.0 
1.0071 -0.266038 0.0 
0.00866252 0.000333248 0.0 
-3.43238e-22 -1.36875e-23 0.0 
0.905114 0.0291563 0.0 
1.00053 0.00514133 0.0 
1.01879 -0.301797 0.0 
0.312848 -0.0125825 0.0 
-3.65788e-293 3.00036e-295 0.0 
0.941206 -0.101079 0.0 
0.00589454 0.000539365 0.0 
1.00232 -0.000599592 0.0 
0.0252661 0.000921796 0.0 
0.356341 -0.00376127 0.0 
1.01238 -0.294585 0.0 
0.754065 0.220131 0.0 
0.238454 0.0190129 0.0 
0.46893 -0.00908565 0.0 
0.867066 -0.0343738 0.0 
0.019596 0.000832046 0.0 
0.0753389 -8.40116e-05 0.0 
0.239337 -0.266874 0.0 
1.00047 0.00907962 0.0 
-8.26263e-238 -1.12342e-239 0.0 
0.955816 0.0233799 0.0 
0.999518 -0.000186618 0.0 
0.997927 0.00153627 0.0 
0 0 0.0 
0.323409 0.0774258 0.0 
0.998872 0.000401868 0.0 
0 0 0.0 
0.130961 -0.009338 0.0 
0.276074 0.0194374 0.0 
0.0159055 0.00116924 0.0 
1.00688 0.00268091 0.0 
1.01072 0.256214 0.0 
0.726787 -0.0652713 0.0 
1.00269 0.000334011 0.0 
0.867977 0.0975343 0.0 
0.999827 0.000797465 0.0 
0.115306 0.026132 0.0 
1.05584 0.0951114 0.0 
4.75366e-11 1.26424e-11 0.0 
0.345861 -0.0233492 0.0 
0.0100208 0.000338476 0.0 
0.764128 0.305774 0.0 
0.608619 -0.463111 0.0 
0.258106 -0.00131118 0.0 
0.23572 0.00624222 0.0 
0.72849 0.191916 0.0 
0.106412 0.0194338 0.0 
0.679689 0.200124 0.0 
1.00778 0 0.0 
0.00739408 0.000149849 0.0 
0.999931 -0.000223349 0.0 
0.0079116 0.000573311 0.0 
0 0 0.0 
1.00669 -0.0150772 0.0 
1.00175 0.0132089 0.0 
1.00048 0.000238304 0.0 
1.00447 -0.00248257 0.0 