<VTKFile type="UnstructuredGrid" version="0.1" byte_order="LittleEndian">
  <UnstructuredGrid>
    <Piece NumberOfPoints="12797" NumberOfCells="25433">
      <Points>
        <DataArray type = "Float64" NumberOfComponents="3" format="ascii">
0 0 0.0 
14 0 0.0 
14 8 0.0 
0 8 0.0 
4.16782 4.09801 0.0 
4.28429 4.07213 0.0 
4.16064 4.00387 0.0 
4.36678 3.97992 0.0 
4.09208 3.95602 0.0 
4.09809 3.94799 0.0 
4.02435 3.98214 0.0 
3.96023 4.01528 0.0 
3.96554 4.00011 0.0 
3.99561 3.97379 0.0 
4.88751 3.99327 0.0 
13.0314 2.11246 0.0 
2.77967 2.28615 0.0 
7.34188 3.93412 0.0 
4.01323 3.99894 0.0 
4.14365 4.04608 0.0 
4.25007 4.10489 0.0 
4.17926 4.05465 0.0 
5.36685 1.46256 0.0 
4.25509 4.06019 0.0 
4.0106 4.0844 0.0 
2.88964 2.91295 0.0 
1.42766 7.23915 0.0 
4.89711 4.11447 0.0 
4.96284 4.02182 0.0 
4.36723 4.05555 0.0 
4.5613 1.5699 0.0 
4.05 3.9756 0.0 
6.10057 4.15061 0.0 
4.78747 4.06717 0.0 
4.24571 4.08867 0.0 
4.17759 3.97818 0.0 
4.09533 4.03459 0.0 
4.00922 3.99881 0.0 
4.70073 3.984 0.0 
10.7485 5.34403 0.0 
7.6559 4.16819 0.0 
3.99379 4.00703 0.0 
4.19864 3.93673 0.0 
4.02004 4.03743 0.0 
3.93682 3.99751 0.0 
4.11094 4.03801 0.0 
4.67352 6.29225 0.0 
3.93738 4.10397 0.0 
11.1856 5.04429 0.0 
4.14183 3.94415 0.0 
4.32407 4.07267 0.0 
5.01259 4.00155 0.0 
4.9802 3.99702 0.0 
4.01706 3.99618 0.0 
4.02815 4.04832 0.0 
4.05402 4.05259 0.0 
9.95511 0.776115 0.0 
4.28975 4.06871 0.0 
4.41775 3.97245 0.0 
7.45243 3.89398 0.0 
4.01726 4.00142 0.0 
4.11533 4.05307 0.0 
4.62101 4.05333 0.0 
9.96602 3.65939 0.0 
4.61386 4.06549 0.0 
4.01647 3.99236 0.0 
4.18458 4.04429 0.0 
4.01922 3.9934 0.0 
4.97466 4.02609 0.0 
3.02318 4.03647 0.0 
4.0339 4.05256 0.0 
4.0293 3.98314 0.0 
1.50573 1.30828 0.0 
12.9735 2.89799 0.0 
4.30127 4.05546 0.0 
4.04895 3.98471 0.0 
4.17785 3.95317 0.0 
4.11445 3.96797 0.0 
5.00785 4.00312 0.0 
10.8833 7.73481 0.0 
4.67556 3.98309 0.0 
14 6.11123 0.0 
4.00891 4.00797 0.0 
4.16432 3.95432 0.0 
3.96293 3.99513 0.0 
4.04956 3.95606 0.0 
13.8157 6.13911 0.0 
4.80966 4.02274 0.0 
4.26993 4.09614 0.0 
4.9648 4.00834 0.0 
4.40713 4.0791 0.0 
4.25731 4.0827 0.0 
8.93895 4.61748 0.0 
4.01234 4.02852 0.0 
3.99922 3.99464 0.0 
5.03684 4.01469 0.0 
10.4298 2.43547 0.0 
4.41387 3.97208 0.0 
4.13552 3.96693 0.0 
8.82917 7.40191 0.0 
12.8718 1.38827 0.0 
4.5853 4.05767 0.0 
14 5.21618 0.0 
1.65747 3.8773 0.0 
11.9167 2.40449 0.0 
4.02434 3.97472 0.0 
4.28749 4.07809 0.0 
3.94943 3.96456 0.0 
4.7663 4.05445 0.0 
4.35338 4.06184 0.0 
4.80536 4.01156 0.0 
4.91778 3.97862 0.0 
5.012 4.10727 0.0 
4.17678 3.96642 0.0 
4.35343 3.94951 0.0 
6.32495 3.13564 0.0 
4.15124 4.04466 0.0 
4.64878 4.09228 0.0 
3.05349 4.57182 0.0 
9.29053 5.20815 0.0 
4.34569 4.08404 0.0 
3.93473 3.98298 0.0 
4.37798 8 0.0 
4.12623 4.0709 0.0 
4.08373 4.05666 0.0 
4.09568 4.05562 0.0 
4.95409 3.98789 0.0 
7.10042 4.12567 0.0 
4.27852 0 0.0 
5.04845 4.04311 0.0 
4.29262 4.07791 0.0 
12.4297 1.07781 0.0 
4.88127 3.99394 0.0 
4.13434 4.07811 0.0 
4.17247 4.05922 0.0 
4.70312 8 0.0 
4.41355 3.95633 0.0 
4.46579 3.97403 0.0 
4.01874 3.97656 0.0 
4.17859 4.06406 0.0 
4.18123 4.0633 0.0 
4.35017 3.94589 0.0 
4.12719 3.97612 0.0 
4.22225 3.98357 0.0 
5.00097 4.00145 0.0 
5.52872 3.97338 0.0 
4.1741 4.07586 0.0 
4.31776 4.09289 0.0 
7.90282 7.80758 0.0 
8.63864 4.82947 0.0 
11.315 5.33499 0.0 
4.8518 3.99085 0.0 
4.366 3.97009 0.0 
3.91267 2.38613 0.0 
4.02873 4.0411 0.0 
4.88146 4.04087 0.0 
3.92981 4.00138 0.0 
4.08859 4.05676 0.0 
4.0826 3.93583 0.0 
6.32134 0.552942 0.0 
4.12124 3.98374 0.0 
3.77462 2.56519 0.0 
4.44375 3.97358 0.0 
5.06164 4.02608 0.0 
4.01421 4.01997 0.0 
4.24743 3.99271 0.0 
4.52447 4.30956 0.0 
4.99458 4.03862 0.0 
3.82546 6.19357 0.0 
4.02244 4.02798 0.0 
4.05549 4.03483 0.0 
4.12635 4.07409 0.0 
0 1.4212 0.0 
4.25778 4.0794 0.0 
4.05773 4.03743 0.0 
4.6626 4.04983 0.0 
0.293813 2.30474 0.0 
4.01283 4.02049 0.0 
3.89353 4.07491 0.0 
4.14014 4.14563 0.0 
4.9908 4.01037 0.0 
4.33852 4.07195 0.0 
4.0644 3.93891 0.0 
4.03174 3.97729 0.0 
4.16503 4.11076 0.0 
5.2424 4.03071 0.0 
4.22906 4.08121 0.0 
4.01465 3.91445 0.0 
4.19206 3.91938 0.0 
5.81702 3.84848 0.0 
4.41558 4.05658 0.0 
4.09641 3.95124 0.0 
4.12454 3.92729 0.0 
4.08491 4.0641 0.0 
3.96293 4.03138 0.0 
4.79463 3.98938 0.0 
4.06298 3.99231 0.0 
4.35916 4.0592 0.0 
4.99604 4.00354 0.0 
4.00131 3.99967 0.0 
10.4204 7.38047 0.0 
3.99252 4.00665 0.0 
3.92274 3.95325 0.0 
4.17636 4.06982 0.0 
4.01378 4.004 0.0 
4.68769 3.98271 0.0 
3.94066 3.96869 0.0 
4.04162 4.00806 0.0 
3.95819 3.97698 0.0 
4.25738 4.07616 0.0 
3.99135 4.00607 0.0 
4.23165 4.07938 0.0 
4.38965 4.07646 0.0 
4.15636 4.04974 0.0 
3.95778 3.98461 0.0 
4.72233 3.98565 0.0 
3.9419 3.97853 0.0 
4.19057 4.05281 0.0 
4.01487 3.98469 0.0 
4.10081 3.94382 0.0 
8.95683 3.61795 0.0 
4.39092 4.05736 0.0 
6.88398 4.79117 0.0 
3.99651 4.05409 0.0 
0.200421 3.56939 0.0 
8.01756 4.40181 0.0 
5.00368 4.02219 0.0 
0.466363 1.55134 0.0 
3.9771 4.03148 0.0 
9.84796 2.57913 0.0 
4.34707 4.05408 0.0 
4.12454 4.06455 0.0 
4.15561 4.10177 0.0 
4.18309 4.12442 0.0 
3.96476 4.03852 0.0 
4.39631 4.08365 0.0 
4.27576 4.05018 0.0 
3.96822 4.02719 0.0 
3.97233 4.04194 0.0 
3.98573 3.91699 0.0 
6.22674 4.16555 0.0 
4.84186 3.99149 0.0 
4.20876 3.92492 0.0 
3.92251 4.00785 0.0 
4.0361 4.22831 0.0 
4.30929 4.04286 0.0 
3.93346 4.08311 0.0 
5.15491 3.95658 0.0 
7.49814 1.66258 0.0 
3.98467 3.93798 0.0 
3.98196 3.98783 0.0 
4.00952 3.98789 0.0 
4.49523 3.9756 0.0 
3.94564 3.99975 0.0 
4.07786 4.03371 0.0 
4.02169 4.00411 0.0 
4.00612 4.04547 0.0 
5.0401 4.02083 0.0 
4.98371 4.01321 0.0 
3.84346 2.08489 0.0 
6.58118 7.26286 0.0 
4.59789 3.91407 0.0 
5.01331 3.98969 0.0 
10.55 8 0.0 
3.91224 4.09544 0.0 
4.52065 3.97569 0.0 
4.36888 4.08399 0.0 
4.1384 3.95607 0.0 
4.08583 4.02136 0.0 
3.83675 4.02514 0.0 
7.57205 0.294679 0.0 
4.0529 3.94832 0.0 
4.05428 3.94079 0.0 
9.70989 7.75915 0.0 
6.6584 1.67484 0.0 
4.02341 4.03456 0.0 
3.99956 4.01717 0.0 
4.52724 7.41561 0.0 
5.05919 4.01855 0.0 
4.88299 3.99306 0.0 
3.96416 4.09294 0.0 
4.22714 3.92146 0.0 
10.801 3.9499 0.0 
4.60397 3.95864 0.0 
11.8467 7.80818 0.0 
4.37377 3.94452 0.0 
4.18445 4.06515 0.0 
4.06103 3.9941 0.0 
4.37071 4.07093 0.0 
1.24078 0.550265 0.0 
9.10545 7.45594 0.0 
2.38032 0.204862 0.0 
4.23309 3.95089 0.0 
12.8853 2.3757 0.0 
4.11792 4.04999 0.0 
4.26148 3.94171 0.0 
4.01517 4.03055 0.0 
4.12813 3.9578 0.0 
3.99882 3.99972 0.0 
4.86447 4.02341 0.0 
4.20717 4.06686 0.0 
5.1555 4.17357 0.0 
4.65648 4.0504 0.0 
3.99908 3.98836 0.0 
4.18171 3.96851 0.0 
4.12151 3.94609 0.0 
4.11064 3.96882 0.0 
5.62775 4.78509 0.0 
4.1973 4.05198 0.0 
4.02134 3.98331 0.0 
4.03557 4.03027 0.0 
4.97222 4.02124 0.0 
4.14977 4.06339 0.0 
4.21664 3.9481 0.0 
6.25452 4.08467 0.0 
4.16001 3.96855 0.0 
4.78474 3.98905 0.0 
4.1022 3.95398 0.0 
4.69932 4.04606 0.0 
4.97355 3.97824 0.0 
3.96627 3.96959 0.0 
5.1327 4.04445 0.0 
4.15593 4.07043 0.0 
4.204 4.03826 0.0 
8.93831 8 0.0 
4.47779 4.09651 0.0 
4.48819 3.97558 0.0 
4.01705 4.02071 0.0 
2.84695 6.56376 0.0 
3.9901 3.98452 0.0 
4.12408 3.94161 0.0 
0.701186 4.76801 0.0 
5.00447 3.99846 0.0 
4.70681 4.0449 0.0 
4.01408 3.98531 0.0 
4.08139 3.94144 0.0 
4.75286 4.08285 0.0 
4.03513 3.9876 0.0 
4.31033 1.42271 0.0 
4.2792 4.0666 0.0 
2.51883 4.13542 0.0 
4.00756 4.02287 0.0 
4.16149 4.0705 0.0 
4.17969 4.07871 0.0 
4.32504 4.05592 0.0 
4.00578 3.99048 0.0 
5.72677 4.01237 0.0 
4.8474 4.18718 0.0 
4.13882 3.99016 0.0 
3.59386 3.60045 0.0 
4.03476 4.03305 0.0 
3.88006 3.94958 0.0 
4.00436 3.99818 0.0 
13.1208 5.83902 0.0 
8.76026 4.31541 0.0 
4.85111 4.02654 0.0 
4.2489 4.09629 0.0 
5.06347 3.99507 0.0 
4.49489 4.06488 0.0 
4.2295 4.0772 0.0 
4.85462 4.0251 0.0 
5.08198 4.04957 0.0 
5.02947 4.00625 0.0 
4.162 4.08289 0.0 
5.06785 4.12387 0.0 
4.05716 4.03832 0.0 
12.5336 5.31907 0.0 
4.59981 4.0562 0.0 
4.47339 4.06638 0.0 
11.2876 2.28581 0.0 
11.5775 5.81489 0.0 
4.44217 7.65296 0.0 
4.54959 4.05991 0.0 
3.99883 4.01382 0.0 
4.68046 3.91654 0.0 
9.36144 0.781322 0.0 
4.34941 4.12037 0.0 
12.2871 4.2707 0.0 
5.07015 4.00673 0.0 
4.01165 4.04753 0.0 
4.84666 0.90021 0.0 
4.04538 3.96133 0.0 
10.343 4.78281 0.0 
4.23985 4.08128 0.0 
4.87039 4.05396 0.0 
4.13381 4.04659 0.0 
3.99577 3.99636 0.0 
7.54435 3.84818 0.0 
3.99752 4.02893 0.0 
4.01884 3.99521 0.0 
4.26259 4.0847 0.0 
6.49985 5.82535 0.0 
4.03658 4.01186 0.0 
4.40003 3.94139 0.0 
8.65214 4.60546 0.0 
4.11851 4.05833 0.0 
3.88357 4.09673 0.0 
4.01204 4.00974 0.0 
4.9921 3.96662 0.0 
12.6312 1.51295 0.0 
4.10816 3.96063 0.0 
4.08637 3.98671 0.0 
8.1554 7.24604 0.0 
5.00127 3.99353 0.0 
4.4292 4.0672 0.0 
11.5292 3.58171 0.0 
4.00774 3.99043 0.0 
5.08658 3.93486 0.0 
4.22135 3.95386 0.0 
4.46326 4.0716 0.0 
4.0911 3.98345 0.0 
4.14295 3.97632 0.0 
4.03016 3.93429 0.0 
4.46004 4.07389 0.0 
4.00329 4.00833 0.0 
4.14278 4.03377 0.0 
5.0218 3.98124 0.0 
12.9978 2.60139 0.0 
4.19507 4.0651 0.0 
4.0766 3.95386 0.0 
5.10311 4.0306 0.0 
4.05693 3.98896 0.0 
5.07095 2.11145 0.0 
4.35832 3.97011 0.0 
4.97651 3.9982 0.0 
4.08645 3.96932 0.0 
3.99442 3.99468 0.0 
3.98027 4.05285 0.0 
0.645476 1.78773 0.0 
4.95949 4.00777 0.0 
4.00169 4.00678 0.0 
4.52868 4.06285 0.0 
4.30489 4.07007 0.0 
4.22898 4.08419 0.0 
4.04077 3.99338 0.0 
10.4901 4.55312 0.0 
8.02673 1.61125 0.0 
4.10231 3.92419 0.0 
4.63925 4.03951 0.0 
13.1066 7.48347 0.0 
4.38318 4.05579 0.0 
4.50928 3.97538 0.0 
13.4588 2.01213 0.0 
13.5501 7.21004 0.0 
14 0.627351 0.0 
4.14765 3.96188 0.0 
5.01074 4.00406 0.0 
4.05469 4.02624 0.0 
5.18793 4.05304 0.0 
4.48792 3.97399 0.0 
4.00126 4.01985 0.0 
10.3175 6.86369 0.0 
4.4081 6.29297 0.0 
3.98111 4.00805 0.0 
2.32868 6.90718 0.0 
9.96992 7.68316 0.0 
4.77981 3.98801 0.0 
3.99352 3.97666 0.0 
4.17387 3.91323 0.0 
4.27231 0.148249 0.0 
4.67002 3.84867 0.0 
4.99276 3.91924 0.0 
3.98468 3.9804 0.0 
4.27492 4.05293 0.0 
4.10308 3.95678 0.0 
8.33815 1.56787 0.0 
3.99849 4.00548 0.0 
4.2123 4.06337 0.0 
10.709 1.4165 0.0 
12.3354 6.04076 0.0 
2.3015 0.745221 0.0 
3.98206 3.97395 0.0 
12.9901 3.16776 0.0 
[...]
<PointData>
  <DataArray type = "Float64" Name="Vitesse" NumberOfComponents="3" format="ascii">
1 0 0.0 
1.00173 0 0.0 
0.999612 0 0.0 
1 0 0.0 
1.0296 0.172688 0.0 
0.119545 0.00263004 0.0 
1e-307 0 0.0 
2.07355e-44 1.67116e-45 0.0 
0.622483 -0.0817226 0.0 
0.835646 -0.116357 0.0 
3.41533e-23 -9.78827e-24 0.0 
0.678289 0.0253511 0.0 
0.646193 -0.0584829 0.0 
0.747812 -0.384689 0.0 
0.00502537 0.000392156 0.0 
1.00199 0.00245859 0.0 
1.00113 -0.00551464 0.0 
0.765663 0.00362682 0.0 
0 0 0.0 
1.18991e-117 2.03792e-118 0.0 
0.94834 0.0973499 0.0 
0 0 0.0 
1.01003 -0.0011823 0.0 
-9.513e-23 -6.79839e-24 0.0 
0.88467 0.244817 0.0 
0.997981 -0.00749109 0.0 
1.00082 0.000962259 0.0 
0.778112 -0.045594 0.0 
0.0416906 -0.00611429 0.0 
0 0 0.0 
1.00906 -0.00344312 0.0 
0.0519418 -0.00854519 0.0 
0.941016 -0.0144682 0.0 
0.250755 -0.0213446 0.0 
0.651719 0.0603484 0.0 
0 0 0.0 
0 0 0.0 
0 0 0.0 
0.00861189 0.000785062 0.0 
1.00452 -0.00667479 0.0 
0.947293 -0.00700713 0.0 
0.253586 0.0705669 0.0 
0.755094 -0.0410901 0.0 
0.715406 0.359346 0.0 
0.763541 -0.038647 0.0 
0 0 0.0 
1.01233 0.00361737 0.0 
0.875629 0.116058 0.0 
1.00185 -0.0117732 0.0 
0.742961 -0.0646071 0.0 
0.0947742 0.0031161 0.0 
0.0371418 0.000489859 0.0 
0.0111522 0.000200599 0.0 
0 0 0.0 
0.835447 0.359438 0.0 
0.786931 0.27382 0.0 
1.0069 0.000726666 0.0 
0.0304123 -0.000581115 0.0 
0.000557774 3.48642e-05 0.0 
0.860512 0.00445763 0.0 
0 0 0.0 
0.104159 0.0201694 0.0 
-4.16322e-16 5.67845e-18 0.0 
1.00598 -0.00324598 0.0 
0.115126 -0.0087709 0.0 
0 0 0.0 
0 0 0.0 
0 0 0.0 
0.0664025 -0.0100343 0.0 
0.98583 0.00260525 0.0 
0.868148 0.349498 0.0 
-1.59796e-64 3.88221e-65 0.0 
1.00055 -0.00131047 0.0 
0.998225 0.0022222 0.0 
0 0 0.0 
0 0 0.0 
0.396547 -0.0166446 0.0 
0.0578609 -0.00554876 0.0 
0.0247029 -0.00486786 0.0 
1.00355 -0.000483163 0.0 
0.00507886 0.000480092 0.0 
0.99895 -0.000368991 0.0 
-6.51142e-171 -4.94292e-171 0.0 
0.391087 -0.0191421 0.0 
0.671223 -0.0821187 0.0 
0.933521 -0.234225 0.0 
0.998926 -0.00052486 0.0 
7.49908e-47 -6.63273e-48 0.0 
0.755933 0.0627452 0.0 
0.00228799 -0.000395793 0.0 
0.214571 -0.00221782 0.0 
0.465884 0.03633 0.0 
1.00711 -0.00387138 0.0 
0.582383 0.343901 0.0 
0.198397 -0.293506 0.0 
0.0617414 -0.00940089 0.0 
1.00856 0.00286059 0.0 
0.00423039 0.000488056 0.0 
0.0557107 -0.00256933 0.0 
1.007 -0.0007486 0.0 
1.00248 0.001782 0.0 
0.00790777 -0.00067529 0.0 
0.998115 0.000759789 0.0 
0.99823 0.000215807 0.0 
1.00453 0.00489505 0.0 
0.573341 -0.209042 0.0 
0.274313 0.0109201 0.0 
0.794493 -0.130936 0.0 
0.118148 -0.0118018 0.0 
-1.53531e-276 -5.06263e-278 0.0 
0 0 0.0 
0.156584 0.00735223 0.0 
0.739158 -0.049759 0.0 
0.032217 0.00114549 0.0 
0.347919 0.00369592 0.0 
1.01174 0.00428729 0.0 
3.33555e-127 5.71268e-128 0.0 
0.478074 -0.0249202 0.0 
0.991218 0.0111047 0.0 
1.00834 -0.00378331 0.0 
0.347989 0.0073137 0.0 
0.783535 -0.0702204 0.0 
1.00774 0 0.0 
0.718254 0.14349 0.0 
0.609923 0.162299 0.0 
0.435582 0.108664 0.0 
0.0849779 0.0042959 0.0 
0.8787 -0.00598925 0.0 
1.00621 0 0.0 
0.197337 -0.0263066 0.0 
0.259973 0.0109675 0.0 
1.00318 0.00158168 0.0 
1.43154e-06 6.8974e-08 0.0 
0.851233 0.167693 0.0 
-3.71054e-38 -3.98076e-39 0.0 
1.00835 0 0.0 
0.235794 0.00524291 0.0 
0.00516365 0.000622653 0.0 
0.607694 -0.255913 0.0 
0.152715 0.0158275 0.0 
0.112094 0.0114355 0.0 
0.41321 0.00270235 0.0 
-2.08969e-177 2.31075e-178 0.0 
0 0 0.0 
0.00768451 -0.00616987 0.0 
0.451494 0.0119191 0.0 
0.581838 0.082847 0.0 
0.587181 0.0286226 0.0 
1.00797 -0.000182444 0.0 
1.00835 -0.00391558 0.0 
0.999307 -0.00890037 0.0 
0.0107554 0.000294562 0.0 
0.0100278 0.000461929 0.0 
1.00786 -0.00960026 0.0 
0.732227 0.332528 0.0 
0.0938154 -0.0106786 0.0 
0.778252 -0.0257333 0.0 
0.559269 0.144156 0.0 
1.06178 -0.192111 0.0 
1.00852 3.53549e-05 0.0 
0 0 0.0 
1.00638 -0.0114121 0.0 
-9.58198e-13 -2.78247e-14 0.0 
0.111141 -0.0152086 0.0 
0.102191 0.0607608 0.0 
0 0 0.0 
1.09101 0.0202375 0.0 
0.14541 -0.0209267 0.0 
1.00848 0.00669291 0.0 
0.33561 0.176572 0.0 
-6.66331e-21 -2.33768e-21 0.0 
0.802494 0.163802 0.0 
1 0 0.0 
0.373709 0.0276467 0.0 
0.000165382 5.90091e-05 0.0 
0.0042094 -0.000108707 0.0 
0.999995 -0.000271916 0.0 
0.208166 0.129367 0.0 
0.865832 0.0604533 0.0 
1.07439 0.17937 0.0 
0.0196271 -0.0052998 0.0 
0.0720918 0.00133247 0.0 
1.06054 -0.227718 0.0 
0.21935 -0.0598435 0.0 
1.09159 0.185241 0.0 
0.247307 -0.0122469 0.0 
0.507511 0.0488695 0.0 
0.970788 -0.217935 0.0 
1.01882 -0.078348 0.0 
0.974502 0.0128456 0.0 
-1.19168e-278 -3.92953e-280 0.0 
0.753469 -0.102007 0.0 
1.05438 -0.134076 0.0 
0.824751 0.225004 0.0 
0.706923 0.0965034 0.0 
1.39822e-20 1.63975e-21 0.0 
0 0 0.0 
0 0 0.0 
0.00668057 -0.00194366 0.0 
-4.71988e-33 9.83888e-33 0.0 
1.00453 -0.00114493 0.0 
0.283554 0.0467172 0.0 
0.842074 -0.0928014 0.0 
0.371705 0.048188 0.0 
0 0 0.0 
0.0147805 0.000747798 0.0 
0.797634 -0.10591 0.0 
0 0 0.0 
0.74308 -0.134942 0.0 
0.282152 0.0198163 0.0 
0.309016 0.0211942 0.0 
0.446228 0.0408852 0.0 
0.162972 -0.00089317 0.0 
0 0 0.0 
0.720363 -0.112271 0.0 
0.00015371 1.26914e-05 0.0 
0.775724 -0.0907636 0.0 
0 0 0.0 
0.102952 -0.0488271 0.0 
0.915633 -0.131282 0.0 
1.00942 0.00125669 0.0 
-3.38299e-78 2.79632e-80 0.0 
1.01068 -0.00572767 0.0 
0.777366 0.263242 0.0 
0.999998 -3.11325e-05 0.0 
1.01028 -0.00437594 0.0 
0.0630054 -0.0176474 0.0 
1.00004 -0.000399716 0.0 
0.661789 0.155634 0.0 
1.00881 0.00148809 0.0 
0 0 0.0 
0.521219 0.0995125 0.0 
1.06752 0.191799 0.0 
1.1073 0.168713 0.0 
0.724272 0.121911 0.0 
0.30797 -0.000113369 0.0 
0 0 0.0 
0.673674 0.0999188 0.0 
0.721829 0.156527 0.0 
0.919599 -0.19489 0.0 
0.96187 -0.0111445 0.0 
2.99105e-06 1.47708e-07 0.0 
0.934139 -0.0580479 0.0 
0.792901 -0.0101247 0.0 
0.998284 0.128551 0.0 
0 0 0.0 
0.850304 0.104573 0.0 
0.44818 0.028573 0.0 
1.0089 0.000842893 0.0 
0.880523 -0.225613 0.0 
0.590175 -0.227717 0.0 
0.0673304 -0.0399119 0.0 
3.08529e-09 1.80349e-10 0.0 
0.73653 -0.0389856 0.0 
0 0 0.0 
0 0 0.0 
0.761712 0.328038 0.0 
0.0775592 -0.0140874 0.0 
0.0229739 -0.00468743 0.0 
1.00706 -0.00733026 0.0 
1.00945 -0.000565652 0.0 
0.791924 0.0108773 0.0 
0.105575 0.0189223 0.0 
1.00414 0 0.0 
0.874087 0.0867116 0.0 
0.00926757 0.000827125 0.0 
0.328724 0.00374777 0.0 
0.405685 -0.0271677 0.0 
0 0 0.0 
0.888399 0.00713515 0.0 
1.00806 9.68378e-05 0.0 
1.0223 -0.250347 0.0 
1.05453 -0.249382 0.0 
1.00568 -0.000402444 0.0 
1.00974 0.000852137 0.0 
0.611198 0.306607 0.0 
0.39725 0.309758 0.0 
1.00844 0.00117514 0.0 
0.0871894 -0.00949216 0.0 
0.00458593 0.000415781 0.0 
0.859673 0.153075 0.0 
0.94669 -0.0531505 0.0 
0.872483 -0.00400562 0.0 
0.252589 0.00906478 0.0 
1.00178 -0.000314536 0.0 
0.431301 0.0040689 0.0 
0.165454 0.018758 0.0 
0 0 0.0 
0.0484347 -0.000482561 0.0 
1.00049 -0.000462106 0.0 
1.00664 -0.000749544 0.0 
1.002 -0.000371438 0.0 
0.377336 -0.00623818 0.0 
1.00159 0.00316275 0.0 
-5.21621e-17 -8.32409e-18 0.0 
0.549469 -0.0108078 0.0 
0.603592 0.337027 0.0 
0.38063 -0.0283075 0.0 
0.0491025 -0.117465 0.0 
-4.16785e-20 5.23071e-21 0.0 
0.131487 0.0113222 0.0 
1.0085 -0.0426327 0.0 
0.000734517 -5.12613e-05 0.0 
0.47781 -0.445722 0.0 
8.39728e-11 -1.4897e-12 0.0 
0.771863 -0.0831431 0.0 
0.0367586 -0.00370122 0.0 
1.01985 -0.0106594 0.0 
0 0 0.0 
1.46678e-12 -7.87972e-13 0.0 
0.0871883 0.0317289 0.0 
0.0443146 -0.00687607 0.0 
0.289562 0.0473795 0.0 
0.462993 -0.0128529 0.0 
0.735196 -0.0105803 0.0 
1.23664e-12 -4.12111e-14 0.0 
1.88879e-05 1.48436e-06 0.0 
0.631683 -0.0746789 0.0 
0.00342933 -0.000354248 0.0 
0.187737 0.0112428 0.0 
0.756374 -0.179823 0.0 
0.255834 -0.0227892 0.0 
0.509765 0.0816127 0.0 
0 0 0.0 
1.00675 0 0.0 
0.525855 -0.00784554 0.0 
-3.05081e-12 -2.21888e-13 0.0 
1.88213e-06 1.27015e-06 0.0 
1.00359 0.00412585 0.0 
0.594276 -0.345973 0.0 
0.868753 -0.097403 0.0 
0.999818 0.000767188 0.0 
0.0282853 0.00685067 0.0 
0.00242144 -0.000264018 0.0 
0.0763286 -0.0351135 0.0 
1.02184 -0.184877 0.0 
0.403466 -0.02883 0.0 
0 0 0.0 
1.00783 -0.00350584 0.0 
3.53366e-11 1.98627e-12 0.0 
0.994127 0.00233664 0.0 
0.475546 0.331105 0.0 
0.478464 0.0716135 0.0 
0.637588 0.0896668 0.0 
0 0 0.0 
0.0693528 -0.0601995 0.0 
0.419702 -0.00217999 0.0 
1.06575 -0.0365404 0.0 
0 0 0.0 
0.981418 -0.0253975 0.0 
0.29342 0.121094 0.0 
0.875573 -0.055788 0.0 
0 0 0.0 
0.998093 -0.00152254 0.0 
1.00693 -0.00535565 0.0 
0.00364697 -0.000423558 0.0 
0.811241 0.0787311 0.0 
0.121294 0.0111286 0.0 
0.0172261 -0.000568351 0.0 
0.388959 0.0349442 0.0 
4.69854e-05 -6.8647e-06 0.0 
0.260548 -0.0288471 0.0 
0.0531132 -0.00209891 0.0 
0.827004 0.136253 0.0 
0.858449 -0.0506619 0.0 
0.0917211 0.0358932 0.0 
0.994038 -0.00249643 0.0 
0.00543639 1.04234e-05 0.0 
0.0214443 -0.00137526 0.0 
1.00696 0.00434623 0.0 
1.0018 -0.00513737 0.0 
1.00802 0.000763993 0.0 
5.52207e-65 -5.08461e-66 0.0 
0.311639 0.266044 0.0 
0.755475 0.0145892 0.0 
1.00737 0.000528376 0.0 
0.988548 0.0515939 0.0 
0.979388 -0.008211 0.0 
0.0926296 0.00140176 0.0 
0.790947 0.342622 0.0 
1.00801 -0.00146518 0.0 
0.832221 -0.21574 0.0 
1.0101 -0.00673943 0.0 
0.474332 0.0422693 0.0 
0.182255 -0.018001 0.0 
0 0 0.0 
0.245274 -0.292257 0.0 
0.942717 0.00365025 0.0 
0.60791 0.315912 0.0 
0 0 0.0 
0.505661 0.0381155 0.0 
1.01202 -0.00304002 0.0 
0 0 0.0 
0.477565 0.00420831 0.0 
1.00735 -0.00416872 0.0 
0.322691 0.0615216 0.0 
0.887097 0.0654868 0.0 
0 0 0.0 
0.308759 0.0213325 0.0 
1.00266 0.00213729 0.0 
0.358897 -0.0337087 0.0 
0 0 0.0 
1.00782 -0.00077863 0.0 
0.0639387 0.0142836 0.0 
2.25177e-05 -7.28233e-07 0.0 
1.01797 0.0129941 0.0 
3.46834e-45 -1.87665e-45 0.0 
0.619878 0.0361667 0.0 
0.318373 -0.00488639 0.0 
0.0954694 -0.0042097 0.0 
0 0 0.0 
0 0 0.0 
1.00478 -0.266384 0.0 
0.131578 -0.00514516 0.0 
2.42006e-124 2.7291e-124 0.0 
0 0 0.0 
0.181363 0.0237582 0.0 
0.999726 0.00296779 0.0 
0.117065 0.0167076 0.0 
0.801146 -0.140224 0.0 
0.156926 -0.0162174 0.0 
0 0 0.0 
1.01265 -0.00261858 0.0 
0.00762433 0.000614 0.0 
1.21022e-06 1.70667e-07 0.0 
0.0969677 -0.00714446 0.0 
0.329362 -0.324447 0.0 
0.759676 0.198024 0.0 
1.00005 -0.000599478 0.0 
-3.54954e-13 4.57954e-14 0.0 
1.82375e-100 2.94296e-100 0.0 
0.0179731 -0.00102825 0.0 
0.041484 0.00271435 0.0 
0.589798 0.0592451 0.0 
0 0 0.0 
1.01293 -0.0072258 0.0 
1.00848 0.000681661 0.0 
1.08585 -0.166152 0.0 
0 0 0.0 
1.00003 -0.000455672 0.0 
-1.35188e-280 -4.4578e-282 0.0 
0.00742916 0.000164264 0.0 
1.00146 0.00184615 0.0 
0.999648 -0.000468653 0.0 
1.00164 0.000511158 0.0 
0.197324 -0.00847471 0.0 
0.0292928 -0.00494187 0.0 
0 0 0.0 
0.344275 -0.0257268 0.0 
0.0148478 0.000749977 0.0 
0.452754 0.337492 0.0 
1.0049 -0.00212745 0.0 
1.01142 0.00473253 0.0 
0.504364 0.0100744 0.0 
1.00232 0.00245177 0.0 
1.00525 -0.000553867 0.0 
0.00577553 0.00062439 0.0 
0.70802 -0.377814 0.0 
1.07372 -0.0981799 0.0 
1.00626 -0.000311043 0.0 
1.05592 0.00344107 0.0 
0.740346 0.0318531 0.0 
0.656532 -0.28561 0.0 
0 0 0.0 
0.527821 -0.0576405 0.0 
1.00827 0.000650603 0.0 
0.0771328 0.0629276 0.0 
2.53488e-07 4.06268e-08 0.0 
1.00636 0.00188833 0.0 
0.999741 -0.00316852 0.0 
1.00181 -0.00130278 0.0 
0.715446 -0.267037 0.0 
1.00109 0.00186093 0.0 
1.00795 0.000477063 0.0 
1e-307 1e-307 0.0 
1.05489 0.01002 0.0 
0.0220789 -0.00215567 0.0 
0.00221228 -6.18787e-05 0.0 
0.958646 -0.12722 0.0 
0.252979 -0.00764293 0.0 
0.716441 0.337274 0.0 
0.798873 0.00117722 0.0 
0 0 0.0 
0.647978 0.256694 0.0 
0.711956 0.271278 0.0 
-5.266e-114 3.57143e-115 0.0 
1.00024 -0.000580551 0.0 
0.295245 0.00869503 0.0 
0.041535 0.0670211 0.0 
3.23086e-113 3.37891e-113 0.0 
0.658799 -0.00258405 0.0 
1.00215 -0.00148842 0.0 
0.705155 -0.0869799 0.0 
1.07242 -0.0109831 0.0 
0.0304308 -0.0824978 0.0 
0.0104181 -0.00752269 0.0 
0.455565 0.0251212 0.0 
1.02062 0.0119245 0.0 
0.676958 0.241886 0.0 
1.00113 0 0.0 
0.46091 -0.191645 0.0 
0.709072 0.375601 0.0 
5.90524e-154 -1.44501e-154 0.0 
0.785763 0.149119 0.0 
0.556419 -0.0638727 0.0 
0.000168209 1.14735e-05 0.0 
0.539864 0.0987153 0.0 
0.728187 0.308447 0.0 
1.00035 -0.000263017 0.0 
0.904981 0.0261395 0.0 
0.997558 0.00471062 0.0 
0.345373 -0.0240956 0.0 
0.07239 -0.156299 0.0 
0.607757 -0.291536 0.0 
0.12367 0.0477036 0.0 
0 0 0.0 
0.0250435 0.000172258 0.0 
0.00803892 0.000400042 0.0 
0 0 0.0 
0.00470889 -0.000165181 0.0 
1.00187 -0.00272724 0.0 
1.10121 -0.00802626 0.0 
0.995283 -0.00103654 0.0 
0.107659 0.00615637 0.0 
0.762402 0.305647 0.0 
0.132405 0.00839558 0.0 
-3.00656e-19 -1.43717e-20 0.0 
0 0 0.0 
0.424656 -0.123378 0.0 
0.0770776 -0.00651279 0.0 
1.00226 0.00264747 0.0 
0.578282 -0.432981 0.0 
0.998843 0.00102261 0.0 
0.808544 -0.215223 0.0 
1.00031 0 0.0 
0.44886 -0.10015 0.0 
0.541215 -0.0336795 0.0 
2.97387e-05 -2.02313e-06 0.0 
-4.08005e-281 -1.34538e-282 0.0 
0.854355 0.215863 0.0 
0.626939 0.159083 0.0 
0.722446 0.0544642 0.0 
0.496622 0.106967 0.0 
1.00333 0.001156 0.0 
0.0663301 -0.00147175 0.0 
0.781362 0.366952 0.0 
6.43035e-06 4.53754e-08 0.0 
0.393594 -0.293086 0.0 
0.0935237 0.000944427 0.0 
0.951119 -0.28866 0.0 
1.00075 -0.0133464 0.0 
0 0 0.0 
1.00463 0 0.0 
0.472159 -0.0838258 0.0 
0.0553885 0.00270179 0.0 
1.00738 -0.0013093 0.0 
0.460625 -0.0431345 0.0 
1 0 0.0 
1.99983e-08 -1.97425e-09 0.0 
0.759463 0.372834 0.0 
0 0 0.0 
1.00677 -0.00695592 0.0 
0 0 0.0 
1.04086e-289 -7.15895e-291 0.0 
1.00931 0 0.0 
0.748991 0.277535 0.0 
0 0 0.0 
0.999248 -0.000390154 0.0 
0.0462383 -0.00198248 0.0 
0.0194882 -0.00161685 0.0 
0.150656 0.0178873 0.0 
0.997536 0.00345356 0.0 
1.00738 0 0.0 
0.752961 0.219909 0.0 
0.789236 0.319216 0.0 
0.91863 0.238797 0.0 
1.00888 -0.000238497 0.0 
0.0263453 0.000729328 0.0 
0.49062 -0.0494534 0.0 
0.769461 0.365268 0.0 
0.747261 0.0636988 0.0 
0.578547 -0.0618725 0.0 
1.00087 0.00237264 0.0 
0.863703 0.354474 0.0 
0.490304 -0.170198 0.0 
0.815251 0.35672 0.0 
0.294685 0.0022208 0.0 
-4.76321e-29 -1.13574e-30 0.0 
0.943511 -0.334716 0.0 
0.229443 -0.00237602 0.0 
0.745859 -0.0902783 0.0 
0.805828 -0.081343 0.0 
1.07139 -0.0358339 0.0 
0.140126 -0.0187029 0.0 
0.00632226 0.000538393 0.0 
0.327061 0.0458201 0.0 
1.05018 0.10254 0.0 
-1.35207e-14 1.53876e-15 0.0 
0 0 0.0 
0.223151 0.0386238 0.0 
1.00841 0.000868974 0.0 
0.0195884 -0.000875438 0.0 
0.719033 -0.157652 0.0 
1.05593 0.0945996 0.0 
0.0458327 -0.00976231 0.0 
0.0998381 -0.0149651 0.0 
0.411926 -0.00500684 0.0 
0.809955 0.12737 0.0 
0.997251 0.000963417 0.0 
0.0318662 -0.00121289 0.0 
5.60989e-232 -2.31269e-233 0.0 
0.453978 -0.0476229 0.0 
1.0064 0.000618163 0.0 
0.278225 -0.0309654 0.0 
1.00826 0.000968279 0.0 
0.837345 -0.0223976 0.0 
0.780319 0.136661 0.0 
0.99957 -0.000654623 0.0 
0.172944 0.0513507 0.0 
0.000665342 6.10506e-05 0.0 
0.189296 0.0399046 0.0 
0.799707 0.0735239 0.0 
1.00361 0 0.0 
0.991876 0.00405701 0.0 
0.695952 -0.448723 0.0 
0.767804 0.0878003 0.0 
0 0 0.0 
0.109639 -0.0122259 0.0 
0.0256019 9.66202e-05 0.0 
1.00521 0.00035998 0.0 
0.405113 -0.00318692 0.0 
0.771513 -0.289839 0.0 
0.0404661 -0.00962538 0.0 
1.00974 -0.00319951 0.0 
1.00685 -0.000388989 0.0 
1.06399 0.222098 0.0 
0.00260268 -0.000372831 0.0 
0.171923 0.0127587 0.0 
0 0 0.0 
0.000158987 -0.000105974 0.0 
0.860116 -0.143153 0.0 
0.161678 -0.00993566 0.0 
0.217165 0.00976077 0.0 
0.591488 0.0812691 0.0 
0.0429356 -0.0166915 0.0 
1 -3.11731e-05 0.0 
1.00246 0 0.0 
0.325174 -0.0212113 0.0 
1.00156 0.00118386 0.0 
1.00818 0 0.0 
0.0995368 0.120867 0.0 
1.00032 -0.00172484 0.0 
0 0 0.0 
0.229302 0.0173643 0.0 
0.000250645 2.31382e-05 0.0 
1.00927 0.00179791 0.0 
0.862327 0.258499 0.0 
0 0 0.0 
1.0078 -0.000467615 0.0 
0.0224623 0.00449975 0.0 
3.64399e-216 6.89742e-218 0.0 
0.00450965 -0.000503376 0.0 
0.758957 0.00445179 0.0 
0 0 0.0 
0.0912808 -0.0103276 0.0 
0.892431 -0.300128 0.0 
0.236812 0.00843527 0.0 
0.96643 0.30552 0.0 
1.0004 -0.000866025 0.0 
0.278532 0.0240181 0.0 
0.976156 -0.277424 0.0 
0 0 0.0 
0.959824 0.0914901 0.0 
0.174277 -0.00654091 0.0 
1.00835 9.32149e-05 0.0 
0 0 0.0 
0.806161 0.197978 0.0 
0.997158 -0.001254 0.0 
0 0 0.0 
0.989606 0.0135161 0.0 
1.00169 0.000931598 0.0 
1.05973 0.21944 0.0 
1.00047 0.00517765 0.0 
1.01868 -0.301421 0.0 
0.313887 -0.0135959 0.0 
0.941238 -0.100637 0.0 
1.01269 0.000512163 0.0 
0.358516 -0.00389802 0.0 
0.786421 0.0266302 0.0 
1.01212 -0.294088 0.0 
1.0341 -0.0535677 0.0 
0.324607 0.168136 0.0 
0.646055 -0.0282991 0.0 
0.317072 0.0754285 0.0 
0.270218 -0.0404012 0.0 
0.0733016 -0.000214946 0.0 
1.0219 0.143351 0.0 
0.999515 -0.000234877 0.0 
0.95744 0.02873 0.0 
0.566142 0.288368 0.0 
1.0054 0.00271238 0.0 
1.01147 -0.00485163 0.0 
0 0 0.0 
0.999355 0.000384871 0.0 
0.646822 0.181301 0.0 
0.00581296 -0.000482907 0.0 
0.0685154 -0.0012625 0.0 
1.00931 0.255551 0.0 
0.726227 -0.0656539 0.0 
1.00683 8.11851e-57 0.0 
1.02077 0.0109191 0.0 
1.01261 0.0126827 0.0 
2.76214e-05 6.10791e-06 0.0 
0.395916 0.0500408 0.0 
-1.33521e-33 -2.83677e-35 0.0 
0.607698 -0.464667 0.0 
0.933156 0.046085 0.0 
0.111575 -0.0180818 0.0 
0.727408 0.191588 0.0 
1.00153 0.0128847 0.0 
0.678534 0.19961 0.0 
0.999793 -0.000364027 0.0 
0.320765 -0.00942581 0.0 
0.00744618 0.000329616 0.0 
0.0498241 -0.0064263 0.0 
1.00772 -0.00377611 0.0 
1.08411 -0.0356085 0.0 
0 0 0.0 
1.00845 -0.000887597 0.0 
1.00791 0.00142781 0.0 
1.03646 -0.27273 0.0 
0.0843292 -0.00877672 0.0 
0.920091 0.0790847 0.0 
3.4693e-05 4.80667e-06 0.0 
0.127368 -0.00100114 0.0 
0.036064 -0.0153591 0.0 
0.718607 0.220024 0.0 
0.222752 0.00553906 0.0 
0.445512 -0.00992414 0.0 
0.0330179 -0.0117727 0.0 
-1.37175e-41 5.39791e-42 0.0 
0.590356 -0.0724656 0.0 
0.0077694 0.000426028 0.0 
1 0.000249504 0.0 
-2.92369e-64 -3.34683e-66 0.0 
5.67604e-05 1.50185e-07 0.0 
0.00979074 0.000126311 0.0 
1.00863 -0.00269687 0.0 
6.72239e-05 5.27188e-06 0.0 
0.994297 -0.0542328 0.0 
1.01001 0.000627055 0.0 
0 0 0.0 
0.870682 0.270009 0.0 
0 0 0.0 
0.28027 -0.0295222 0.0 
1.0053 -0.00210873 0.0 
6.21662e-26 8.01317e-28 0.0 
0 0 0.0 
0.164023 0.00795634 0.0 
0.000269184 -1.98441e-05 0.0 
0.872362 -0.197033 0.0 
1.00218 0 0.0 
1.09257 -0.100186 0.0 
0.942575 -0.359992 0.0 
0.966873 -0.0501099 0.0 
0 0 0.0 
1.00956 -0.00446443 0.0 
0.0484458 -0.00346374 0.0 
0 0 0.0 
0 0 0.0 
0.364864 0.00601494 0.0 
0.0159942 -0.000799414 0.0 
1.12208 0.117285 0.0 
1.00894 -0.00292567 0.0 
0.574303 0.223014 0.0 
0.651359 0.277102 0.0 
0.9026 -0.0745309 0.0 
0.454563 -0.34682 0.0 
0.920524 -0.304787 0.0 
1.00003 0.000515775 0.0 
1.00849 0.00125552 0.0 
1.00146 -0.000847667 0.0 
0.209757 -0.000213326 0.0 
0.952025 0.284238 0.0 
0.966652 -0.167747 0.0 
1.00538 0.00164268 0.0 
0.818944 -0.244644 0.0 
0.0666843 0.0054661 0.0 
0.16129 0.168569 0.0 
0 0 0.0 
0.06247 -0.00817515 0.0 
0.0280753 -0.00111671 0.0 
0.117841 -0.0215198 0.0 
0.0330625 -0.0150483 0.0 
1.01702 -0.111115 0.0 
1.01063 0.00324161 0.0 
0.801384 -0.352043 0.0 
1.40584e-99 1.33266e-99 0.0 
0.839129 0.0156006 0.0 
0 0 0.0 
0.000495968 6.22776e-05 0.0 
0 0 0.0 
1.79723e-252 2.54328e-252 0.0 
0.793962 0.101046 0.0 
1.0079 0.000149022 0.0 
0.645788 -0.00867779 0.0 
0.258465 -0.0472128 0.0 
1.00487 0.000595919 0.0 
0.446011 -0.0381276 0.0 
1.00621 0.153229 0.0 
1.00615 -0.0020824 0.0 
0.0110481 0.000265306 0.0 
0.744127 -0.429905 0.0 
0.855687 -0.118184 0.0 
0.24235 -0.00793387 0.0 
0.0250902 -0.00168539 0.0 
0 0 0.0 
0.977439 0.29364 0.0 
1.00786 0.00021869 0.0 
1.01031 -0.00173684 0.0 
1.0005 0.000587325 0.0 
1.00934 -8.98202e-05 0.0 
0.682413 -0.107459 0.0 
0.0305653 -0.0317848 0.0 
1.00967 0.00208983 0.0 
0 0 0.0 
0.000274638 -1.68705e-05 0.0 
1.0082 0.000184998 0.0 
0.982747 -0.0108549 0.0 
0.0165353 0.000109164 0.0 
1.00108 -0.00125179 0.0 
0 0 0.0 
0.60886 0.341193 0.0 
0.968887 -0.342013 0.0 
1.01001 0.0122837 0.0 
0.00222526 -0.000168885 0.0 
1.0008 -0.00237306 0.0 
0.873103 -0.0452077 0.0 
0.634901 -0.135753 0.0 
1.00201 0.00521424 0.0 
0.271362 -0.0134315 0.0 
0.849672 0.332387 0.0 
0.994053 0.00140205 0.0 
0.0339071 0.00124122 0.0 
0 0 0.0 
1.00778 0.00382498 0.0 
0 0 0.0 
0.998855 0.000829869 0.0 
1.01332 0.0550167 0.0 
0.91079 0.337944 0.0 
0 0 0.0 
0.561339 -0.207181 0.0 
0.969056 0.169415 0.0 
1.0758 -0.112397 0.0 
1.00758 -0.00360141 0.0 