<VTKFile type="UnstructuredGrid" version="0.1" byte_order="LittleEndian">
  <UnstructuredGrid>
    <Piece NumberOfPoints="12671" NumberOfCells="25181">
      <Points>
        <DataArray type = "Float64" NumberOfComponents="3" format="ascii">
0 0 0.0 
14 0 0.0 
14 8 0.0 
0 8 0.0 
4.16782 4.09801 0.0 
4.70802 4.04536 0.0 
4.64803 4.05131 0.0 
11.7886 3.43248 0.0 
3.99833 4.00152 0.0 
4.27592 4.05022 0.0 
4.08877 3.90737 0.0 
4.69524 3.98471 0.0 
4.01517 4.08782 0.0 
12.5949 1.78564 0.0 
4.30612 3.92118 0.0 
4.30511 4.05061 0.0 
7.67997 6.07885 0.0 
4.70906 4.04484 0.0 
4.08492 3.93693 0.0 
4.27299 4.08507 0.0 
4.49854 4.06317 0.0 
4.97365 4.02617 0.0 
4.71492 3.9849 0.0 
4.00325 3.99344 0.0 
4.32466 4.07588 0.0 
4.08463 4.03011 0.0 
4.36723 4.05555 0.0 
4.12438 3.96136 0.0 
4.34822 4.08628 0.0 
8.28818 5.78715 0.0 
4.17297 4.07201 0.0 
4.09533 4.03459 0.0 
4.00922 3.99881 0.0 
4.02803 4.04844 0.0 
4.41078 3.97198 0.0 
4.01927 3.99345 0.0 
10.8425 1.88491 0.0 
4.11094 4.03801 0.0 
4.58087 4.05818 0.0 
4.37665 3.94429 0.0 
3.98196 3.98783 0.0 
5.00749 4.02107 0.0 
4.36023 4.05917 0.0 
4.01706 3.99618 0.0 
5.00546 4.00308 0.0 
4.96814 3.93322 0.0 
4.27513 4.03496 0.0 
3.80196 4.16766 0.0 
3.88952 3.91171 0.0 
3.99526 4.00176 0.0 
4.02217 3.98852 0.0 
4.05474 4.02614 0.0 
3.60926 4.02077 0.0 
3.99697 4.00162 0.0 
4.01647 3.99236 0.0 
4.22754 4.06376 0.0 
4.03396 4.05254 0.0 
4.13298 4.05488 0.0 
4.10344 3.92288 0.0 
4.01494 3.98462 0.0 
4.22017 3.96655 0.0 
4.78007 4.06498 0.0 
4.34768 3.9099 0.0 
4.22291 4.07683 0.0 
11.2037 6.16107 0.0 
5.00785 4.00312 0.0 
10.8833 7.73481 0.0 
14 6.11123 0.0 
4.13897 4.0652 0.0 
3.96293 3.99513 0.0 
4.04956 3.95606 0.0 
4.45978 3.99033 0.0 
8.57478 3.36034 0.0 
4.05719 3.97511 0.0 
3.99922 3.99464 0.0 
5.03684 4.01469 0.0 
4.06061 4.04046 0.0 
4.01128 4.04737 0.0 
14 5.21618 0.0 
13.3909 6.29285 0.0 
5.09382 4.07113 0.0 
4.23661 3.98314 0.0 
4.70331 3.984 0.0 
2.06395 2.66372 0.0 
5.00991 4.10716 0.0 
4.00161 4.0037 0.0 
4.40564 4.06951 0.0 
4.24422 7.49665 0.0 
11.4021 6.00203 0.0 
4.35343 3.94951 0.0 
4.91928 3.99556 0.0 
3.05349 4.57182 0.0 
13.2626 4.3914 0.0 
4.23647 3.95137 0.0 
5.00128 3.99352 0.0 
4.90893 3.98232 0.0 
4.08373 4.05666 0.0 
4.51142 3.97554 0.0 
4.00595 3.90147 0.0 
4.27852 0 0.0 
5.04845 4.04311 0.0 
4.82069 4.03076 0.0 
5.00875 4.00222 0.0 
4.00491 4.00281 0.0 
4.13434 4.07811 0.0 
4.39885 3.96684 0.0 
4.03921 4.05963 0.0 
4.71983 4.11232 0.0 
5.50713 3.96917 0.0 
4.35017 3.94589 0.0 
9.8335 5.5186 0.0 
4.3215 4.06836 0.0 
4.04302 4.0364 0.0 
4.74045 3.98588 0.0 
4.1741 4.07586 0.0 
4.38305 3.97026 0.0 
3.7391 1.31631 0.0 
3.96236 4.17229 0.0 
4.86798 4.03263 0.0 
3.99402 4.15432 0.0 
4.03028 3.9779 0.0 
3.91267 2.38613 0.0 
4.02873 4.0411 0.0 
4.88146 4.04087 0.0 
5.00542 4.01556 0.0 
3.41321 0.818569 0.0 
3.31445 2.29422 0.0 
4.12124 3.98374 0.0 
4.15151 3.97477 0.0 
4.07596 3.95337 0.0 
4.48842 3.97436 0.0 
4.07214 4.04076 0.0 
4.99458 4.03862 0.0 
4.93874 4.01199 0.0 
4.02244 4.02798 0.0 
8.11546 3.80085 0.0 
4.12635 4.07409 0.0 
0 1.4212 0.0 
5.60969 8 0.0 
4.0637 4.04023 0.0 
1.72015 8 0.0 
4.21158 3.92358 0.0 
4.58637 4.06823 0.0 
5.01331 3.98969 0.0 
3.97706 4.03149 0.0 
4.98634 4.00377 0.0 
5.05415 4.0144 0.0 
4.85704 3.99186 0.0 
4.12613 3.92733 0.0 
4.02853 3.97465 0.0 
4.15919 4.06546 0.0 
4.19206 3.91938 0.0 
4.49976 3.97521 0.0 
4.31857 4.08886 0.0 
4.09641 3.95124 0.0 
4.73315 4.02429 0.0 
3.96291 4.03142 0.0 
1.03306 6.23145 0.0 
4.16991 4.04935 0.0 
4.17721 4.06988 0.0 
4.1221 3.94586 0.0 
3.9968 4.05414 0.0 
3.99252 4.00665 0.0 
4.06271 4.04295 0.0 
4.40196 3.97223 0.0 
9.05417 0 0.0 
4.14649 4.0343 0.0 
4.08859 4.12809 0.0 
4.13754 3.96494 0.0 
4.23072 3.96649 0.0 
4.69142 3.98325 0.0 
5.06886 4.12388 0.0 
4.19057 4.05281 0.0 
4.10081 3.94382 0.0 
4.05695 3.98888 0.0 
9.2955 7.05713 0.0 
4.68814 4.04789 0.0 
3.00161 3.79077 0.0 
5.00368 4.02219 0.0 
4.02829 4.02865 0.0 
3.89929 6.84676 0.0 
5.02091 3.98132 0.0 
5.02315 4.00601 0.0 
4.15753 4.10167 0.0 
3.96821 4.02723 0.0 
4.18309 4.12442 0.0 
3.96476 4.03852 0.0 
4.00057 3.99697 0.0 
3.97233 4.04194 0.0 
4.97226 4.00642 0.0 
7.86124 4.16307 0.0 
4.0175 4.04099 0.0 
1.12644 3.34247 0.0 
3.92251 4.00785 0.0 
4.00596 3.99585 0.0 
4.3954 3.97111 0.0 
3.80042 4.0389 0.0 
4.59545 4.0562 0.0 
4.10761 4.0532 0.0 
4.08433 4.05007 0.0 
4.90103 4.01897 0.0 
5.04007 4.02119 0.0 
7.06877 5.9895 0.0 
13.2653 2.91651 0.0 
4.00756 4.02287 0.0 
4.00612 4.04547 0.0 
4.23103 3.92099 0.0 
4.98371 4.01321 0.0 
4.03692 3.96557 0.0 
4.99557 4.00447 0.0 
4.34616 4.10581 0.0 
4.03116 4.02904 0.0 
4.28296 3.96813 0.0 
4.13991 4.05625 0.0 
4.35441 3.97122 0.0 
1.59261 4.11578 0.0 
6.25214 4.08628 0.0 
9.70989 7.75915 0.0 
4.01314 4.13713 0.0 
4.02341 4.03456 0.0 
4.07978 3.95604 0.0 
4.52724 7.41561 0.0 
5.05919 4.01855 0.0 
2.15923 7.15628 0.0 
5.00318 4.00255 0.0 
4.40596 4.06878 0.0 
4.60701 3.95862 0.0 
2.65568 3.12664 0.0 
2.85705 1.68624 0.0 
7.8889 4.01415 0.0 
7.18887 6.80823 0.0 
4.13137 4.09569 0.0 
1.24078 0.550265 0.0 
9.10545 7.45594 0.0 
2.38032 0.204862 0.0 
4.05936 4.03931 0.0 
4.11851 4.05833 0.0 
4.25854 3.983 0.0 
4.01517 4.03055 0.0 
4.0324 3.93191 0.0 
3.99882 3.99972 0.0 
4.11501 4.15122 0.0 
3.99466 4.00664 0.0 
4.9931 4.01893 0.0 
4.76727 3.98696 0.0 
3.99908 3.98836 0.0 
8.76112 4.31939 0.0 
4.7776 3.98763 0.0 
4.52789 3.97633 0.0 
5.82879 4.74509 0.0 
4.67281 4.04972 0.0 
4.21507 3.9482 0.0 
4.08147 4.04702 0.0 
4.97222 4.02124 0.0 
4.10194 4.05069 0.0 
4.19735 4.0441 0.0 
4.07703 3.96543 0.0 
4.63837 4.03036 0.0 
4.08678 3.96894 0.0 
11.9473 3.59927 0.0 
5.1327 4.04445 0.0 
13.1833 1.01136 0.0 
4.08293 3.9416 0.0 
3.47515 3.78655 0.0 
4.00943 4.02943 0.0 
4.11316 4.48684 0.0 
4.07071 3.48719 0.0 
8.2761 4.17691 0.0 
3.9901 3.98452 0.0 
4.10501 3.93754 0.0 
3.82855 4.23467 0.0 
2.01139 2.3485 0.0 
4.72772 4.04253 0.0 
4.24567 4.07736 0.0 
4.00938 3.99278 0.0 
4.1797 4.07872 0.0 
4.80847 4.03128 0.0 
3.89425 3.93555 0.0 
4.33415 4.0546 0.0 
4.03017 4.0795 0.0 
3.59386 3.60045 0.0 
13.2253 0 0.0 
10.1351 3.82958 0.0 
8.4019 2.63204 0.0 
5.55089 5.0192 0.0 
5.06347 3.99507 0.0 
5.95927 1.49978 0.0 
3.9952 4.00599 0.0 
4.08006 3.96864 0.0 
5.08198 4.04957 0.0 
5.02947 4.00625 0.0 
4.31558 4.08551 0.0 
4.41349 3.97152 0.0 
13.7718 3.68647 0.0 
3.98795 3.99915 0.0 
4.73083 4.053 0.0 
13.4125 7.46568 0.0 
4.08711 3.98632 0.0 
3.99883 4.01382 0.0 
4.27063 3.97631 0.0 
4.16897 3.94561 0.0 
3.98465 3.9804 0.0 
5.00166 3.98677 0.0 
4.2843 3.96849 0.0 
4.33951 4.07422 0.0 
4.84023 3.97761 0.0 
4.13386 4.04638 0.0 
4.33922 3.91937 0.0 
4.15278 4.0219 0.0 
4.28203 3.96855 0.0 
0.372474 6.03503 0.0 
3.99752 4.02893 0.0 
4.01884 3.99521 0.0 
4.72892 4.03405 0.0 
3.98628 3.99582 0.0 
5.17449 3.98177 0.0 
4.98756 3.96669 0.0 
4.01204 4.00974 0.0 
4.4255 4.08285 0.0 
4.32985 4.07068 0.0 
1.81725 2.57404 0.0 
4.97445 3.98438 0.0 
8.1554 7.24604 0.0 
4.14442 3.95991 0.0 
4.00774 3.99043 0.0 
3.98163 4.03116 0.0 
4.17689 3.91279 0.0 
4.3171 4.12404 0.0 
4.90601 4.01586 0.0 
3.99805 4.00952 0.0 
9.26665 0.467902 0.0 
9.52987 5.94501 0.0 
5.10311 4.0306 0.0 
4.28205 4.09231 0.0 
5.07095 2.11145 0.0 
3.93422 3.94134 0.0 
4.30598 4.09836 0.0 
4.05145 4.02999 0.0 
3.98027 4.05285 0.0 
4.28349 4.06654 0.0 
4.46703 4.06565 0.0 
3.98817 4.01223 0.0 
4.79302 3.98892 0.0 
4.04077 3.99338 0.0 
4.4552 4.0665 0.0 
1.56175 5.17905 0.0 
4.12173 4.07245 0.0 
4.00758 4.01431 0.0 
4.1217 4.05313 0.0 
4.07751 3.92651 0.0 
4.68415 4.0845 0.0 
4.95563 4.10258 0.0 
4.97939 4.05504 0.0 
4.30549 3.96852 0.0 
5.18793 4.05304 0.0 
4.72098 3.9468 0.0 
8.23782 4.02195 0.0 
3.98111 4.00805 0.0 
4.13405 3.96704 0.0 
3.99352 3.97666 0.0 
4.09174 4.03192 0.0 
4.26339 4.06683 0.0 
4.67002 3.84867 0.0 
4.0572 4.03834 0.0 
5.80431 4.02323 0.0 
4.27492 4.05293 0.0 
4.10308 3.95678 0.0 
10.2895 1.59085 0.0 
12.9541 0.480223 0.0 
4.99693 3.99847 0.0 
13.3828 0.773072 0.0 
4.46281 4.06648 0.0 
12.0751 7.3114 0.0 
3.98206 3.97395 0.0 
12.9901 3.16776 0.0 
11.3126 4.62414 0.0 
4.00383 4.01167 0.0 
3.85341 3.99819 0.0 
4.02402 4.04636 0.0 
4.45993 4.06605 0.0 
4.00375 4.03912 0.0 
4.13781 4.0564 0.0 
3.99121 4.03339 0.0 
3.99417 4.04189 0.0 
8.16566 3.11015 0.0 
4.1501 3.96768 0.0 
4.72355 3.98489 0.0 
3.99997 3.99241 0.0 
4.29565 3.96785 0.0 
13.7588 4.46425 0.0 
4.80448 4.05826 0.0 
4.41083 4.08746 0.0 
3.98918 4.03714 0.0 
5.04269 4.00778 0.0 
4.01059 4.0357 0.0 
4.01441 4.0188 0.0 
0.958678 0 0.0 
4.09975 3.95651 0.0 
4.13306 4.06692 0.0 
4.00056 4.04248 0.0 
1.05155 0.371395 0.0 
4.18631 4.04791 0.0 
3.9896 4.00463 0.0 
5.18814 3.88706 0.0 
3.98613 3.98439 0.0 
4.84159 4.02786 0.0 
4.00273 4.04763 0.0 
4.02428 4.00868 0.0 
2.46283 1.41429 0.0 
12.2425 0.673717 0.0 
4.22394 3.96676 0.0 
4.11868 3.93345 0.0 
4.1008 4.02805 0.0 
5.04061 3.99919 0.0 
4.57501 3.95546 0.0 
3.98643 3.99986 0.0 
4.43949 3.98707 0.0 
0 1.16252 0.0 
3.99581 3.98523 0.0 
4.01475 3.97768 0.0 
1.25763 5.52376 0.0 
3.98481 4.00073 0.0 
3.97761 4.0047 0.0 
0.747951 5.69629 0.0 
4.25205 3.9674 0.0 
4.74393 4.02011 0.0 
4.97713 4.00686 0.0 
4.11077 4.06077 0.0 
3.98558 4.00796 0.0 
4.02211 4.06378 0.0 
4.3966 3.97161 0.0 
3.96028 4.05564 0.0 
4.09273 4.06251 0.0 
4.17937 3.96726 0.0 
4.27982 4.05867 0.0 
14 6.70716 0.0 
3.9961 4.01386 0.0 
4.99712 4.01383 0.0 
4.00699 3.98899 0.0 
4.11333 3.95725 0.0 
4.51998 3.96526 0.0 
4.84175 4.0979 0.0 
12.7051 3.9722 0.0 
4.07076 4.03121 0.0 
4.60962 3.97997 0.0 
4.47791 4.03912 0.0 
3.99705 4.04765 0.0 
4.96232 3.98271 0.0 
4.14569 4.07303 0.0 
4.27037 4.11663 0.0 
5.0004 3.98388 0.0 
4.99939 3.99908 0.0 
4.13787 3.93543 0.0 
4.61626 3.85996 0.0 
4.10918 3.95694 0.0 
4.02241 4.04141 0.0 
3.9487 4.03134 0.0 
4.1093 3.95442 0.0 
4.07758 4.0426 0.0 
4.02972 4.05235 0.0 
4.02642 3.97524 0.0 
4.01777 4.04818 0.0 
4.449 4.06678 0.0 
8.66912 5.53469 0.0 
4.0266 3.96232 0.0 
4.84885 5.80485 0.0 
4.10695 3.94953 0.0 
4.78663 3.98795 0.0 
4.16984 3.91961 0.0 
4.31324 4.0692 0.0 
4.0589 4.00429 0.0 
4.03778 3.99834 0.0 
5.00003 3.9957 0.0 
[...]
<PointData>
  <DataArray type = "Float64" Name="Vitesse" NumberOfComponents="3" format="ascii">
1 0 0.0 
1.00624 0 0.0 
1.00491 0 0.0 
1 0 0.0 
1.02917 0.172737 0.0 
0.00622223 -0.000508028 0.0 
0.00325199 -0.000329586 0.0 
1.01055 0.00132649 0.0 
0.0448898 -0.0689669 0.0 
0 0 0.0 
1.07727 -0.174444 0.0 
0.000137765 1.73615e-05 0.0 
0.898153 0.24573 0.0 
1.00781 0.000837469 0.0 
0.85391 -0.0222798 0.0 
-8.65994e-226 -6.36545e-227 0.0 
1.00983 -0.0018241 0.0 
0.00358203 -7.08718e-05 0.0 
1.05201 -0.186214 0.0 
0.488896 0.0338921 0.0 
2.66816e-101 -5.04515e-103 0.0 
0.0662734 -0.00993511 0.0 
0.0052084 0.000195985 0.0 
-7.54302e-107 6.12291e-107 0.0 
0.171545 0.00392616 0.0 
0 0 0.0 
0 0 0.0 
0.270966 -0.019882 0.0 
0.395053 0.00923053 0.0 
1.00951 -0.00175988 0.0 
0.463711 0.0644546 0.0 
0 0 0.0 
0 0 0.0 
0.835802 0.359319 0.0 
0.00591084 0.00118196 0.0 
0 0 0.0 
1.00862 0.000607779 0.0 
0 0 0.0 
0.00982658 -0.000804525 0.0 
0.433721 0.00435698 0.0 
0.590473 -0.228665 0.0 
0.0597037 -0.0182164 0.0 
0 0 0.0 
0 0 0.0 
0.0199273 -0.0064677 0.0 
0.618186 0.0273395 0.0 
0 0 0.0 
0.935769 0.0488922 0.0 
0.899671 -0.0788258 0.0 
0.164399 -0.0984283 0.0 
2.65948e-120 -1.26089e-120 0.0 
0 0 0.0 
0.952716 0.00197462 0.0 
0.0968539 -0.0896636 0.0 
0 0 0.0 
-4.83662e-61 -2.88198e-62 0.0 
0.867782 0.349168 0.0 
0.0437214 0.00858683 0.0 
1.08656 -0.165218 0.0 
0.104229 -0.0550207 0.0 
0.0218613 0.000792001 0.0 
0.222896 -0.020029 0.0 
0.941811 -0.0212263 0.0 
0.402011 0.0367179 0.0 
1.00773 -0.000852777 0.0 
0.0248843 -0.00485234 0.0 
1.00661 -0.000132297 0.0 
1.00626 -0.00116077 0.0 
0.432352 0.0767637 0.0 
0.670879 -0.0828071 0.0 
0.933978 -0.23472 0.0 
5.57064e-94 1.7702e-95 0.0 
1.0099 0.000400463 0.0 
-1.54303e-22 1.81202e-23 0.0 
0.192574 -0.294093 0.0 
0.0617573 -0.0093643 0.0 
0.158716 0.0521423 0.0 
0.788275 0.341544 0.0 
1.00619 -0.00275578 0.0 
1.0064 -0.00101469 0.0 
0.446744 -0.0383365 0.0 
-7.30071e-192 -3.83156e-193 0.0 
0.00871069 0.000327243 0.0 
0.99926 -0.00322433 0.0 
0.73704 -0.0497176 0.0 
6.83626e-30 1.14196e-29 0.0 
0.0306384 -0.000894777 0.0 
1.00773 0.00123982 0.0 
1.00784 -0.000926527 0.0 
0.347028 0.00385924 0.0 
1.66416e-06 2.37474e-08 0.0 
0.991093 0.0110796 0.0 
1.00495 -0.00214722 0.0 
0.363067 -0.00580286 0.0 
0.0641065 0.0141037 0.0 
0.116581 0.00568538 0.0 
0.60948 0.161893 0.0 
0.00616595 0.000632483 0.0 
0.963913 -0.192089 0.0 
1.00631 0 0.0 
0.196971 -0.026201 0.0 
0.00358751 -0.000386327 0.0 
0.0279968 -0.00241858 0.0 
6.89676e-73 6.51118e-73 0.0 
0.851079 0.168128 0.0 
0.0726338 0.00232974 0.0 
0.911091 0.337459 0.0 
0.736357 -0.0348777 0.0 
0.465109 0.0133221 0.0 
0.412298 0.00285433 0.0 
1.0091 -0.00121715 0.0 
3.07165e-10 9.90596e-12 0.0 
0.291058 0.109855 0.0 
0.00841326 0.000607666 0.0 
0.581369 0.082737 0.0 
0.0169828 0.000963033 0.0 
1.00574 -0.0036714 0.0 
0.94144 0.125034 0.0 
0.0397495 -0.00511591 0.0 
0.943741 0.155441 0.0 
0.212255 -0.068895 0.0 
1.00798 -0.0097789 0.0 
0.730851 0.332357 0.0 
0.094042 -0.0107782 0.0 
0.040817 -0.0162213 0.0 
1.00441 -0.0020952 0.0 
1.00333 -0.00789047 0.0 
0 0 0.0 
2.98292e-148 -2.94011e-150 0.0 
0.820805 -0.145689 0.0 
0.00894179 0.000993749 0.0 
-5.61633e-135 -1.28931e-135 0.0 
0.145313 -0.0208642 0.0 
0.00101044 -0.000101818 0.0 
0.333966 0.174506 0.0 
0.979536 0.0014097 0.0 
0.801713 0.164477 0.0 
1 0 0.0 
1.00949 0 0.0 
0.0837192 0.0199177 0.0 
1.00131 0 0.0 
0.946004 -0.058813 0.0 
0.128602 -0.00897793 0.0 
0.10548 0.0187848 0.0 
0.661327 0.154805 0.0 
0.00112843 -0.000251828 0.0 
0.0770858 -0.00645197 0.0 
0.00371523 0.000293735 0.0 
1.05257 -0.132351 0.0 
0.482981 -0.161527 0.0 
0.306302 0.0420106 0.0 
1.01853 -0.0783562 0.0 
0.00622552 0.000264783 0.0 
0.49343 0.0216167 0.0 
0.754273 -0.102049 0.0 
-3.22938e-126 1.12419e-127 0.0 
0.70657 0.0959669 0.0 
1.00024 0.00139566 0.0 
0 0 0.0 
0.369379 0.0471169 0.0 
0.774894 -0.0838439 0.0 
0.777788 0.264187 0.0 
0.282982 0.0459443 0.0 
0.274085 0.0795156 0.0 
8.1882e-06 6.91733e-07 0.0 
1.00809 0 0.0 
0 0 0.0 
1.03024 0.213313 0.0 
0.117822 -0.00325063 0.0 
0.0229197 -9.38465e-05 0.0 
0.0115441 0.00089246 0.0 
0.857654 -0.0505126 0.0 
0 0 0.0 
0.915822 -0.13106 0.0 
0 0 0.0 
1.00775 -0.000581241 0.0 
0.00931757 -0.0009553 0.0 
0.987448 -0.00373943 0.0 
0.0630334 -0.0176355 0.0 
0.19987 0.0942405 0.0 
1.00759 0.00349096 0.0 
0.179865 0.0236584 0.0 
0.0456758 -0.00319889 0.0 
1.06519 0.189204 0.0 
0.673213 0.099461 0.0 
1.10671 0.168526 0.0 
0.723998 0.121375 0.0 
0.0286792 -0.0854125 0.0 
0.721496 0.156061 0.0 
0.000908582 -0.000157346 0.0 
0.932777 -0.00405021 0.0 
0.766743 0.372221 0.0 
0.999375 -0.00059678 0.0 
0.792001 -0.0107387 0.0 
0 0 0.0 
0.00873647 0.000465538 0.0 
0.908436 0.0114477 0.0 
9.0106e-05 -1.03335e-05 0.0 
0.189429 0.0402377 0.0 
0.315534 0.0747046 0.0 
0.00317996 -0.000481013 0.0 
0.0786464 -0.014264 0.0 
1.0108 -0.00218829 0.0 
1.00885 0.0015058 0.0 
0.473454 0.33138 0.0 
0.761082 0.327667 0.0 
0.947016 -0.0519757 0.0 
0.0231 -0.00482377 0.0 
0.786319 -0.231601 0.0 
0.00900206 -0.00288032 0.0 
0.796003 0.0348686 0.0 
0.129012 0.0475701 0.0 
0.00695798 0.0001773 0.0 
0.0573027 0.00888631 0.0 
3.74756e-07 2.97338e-08 0.0 
0.998244 0.000814094 0.0 
0.738285 -0.0105417 0.0 
1.00723 -0.000138242 0.0 
0.946724 0.181664 0.0 
0.609578 0.305431 0.0 
0.708464 -0.114486 0.0 
1.00851 0.00122754 0.0 
0.0871583 -0.00942564 0.0 
1.00202 0.00172234 0.0 
0.0149311 -0.00719709 0.0 
0.0183572 -0.000437447 0.0 
0.25285 0.00921158 0.0 
0.996515 -0.00572406 0.0 
1.00254 -0.00412888 0.0 
0.694083 -0.000497966 0.0 
1.00973 -0.00104367 0.0 
1.05732 0.216681 0.0 
1.00049 -0.000467071 0.0 
1.00767 -0.000356001 0.0 
1.00202 -0.000377564 0.0 
0.1117 0.0360879 0.0 
0.319895 0.0605123 0.0 
0 0 0.0 
0.602962 0.336433 0.0 
1.0106 -0.258729 0.0 
0.0489594 -0.117127 0.0 
1.05083 0.183599 0.0 
0.221838 0.0685236 0.0 
0.0472129 -0.0118521 0.0 
0.00968682 0.000633007 0.0 
0.47963 -0.446276 0.0 
1.00899 -0.00274733 0.0 
0.00769733 0.00080423 0.0 
0.00531106 0.000273647 0.0 
1.0163 -0.0101365 0.0 
0.0103131 -0.00116541 0.0 
0.462386 -0.0140224 0.0 
0.201136 0.045753 0.0 
0.0444109 -0.00690394 0.0 
0.126485 0.0236809 0.0 
0 0 0.0 
0.342565 -0.0482744 0.0 
0 0 0.0 
0.114951 -0.0136442 0.0 
1.01257 -0.000248306 0.0 
0.255507 -0.0226452 0.0 
1.00688 0.000454848 0.0 
1.01613 -0.180995 0.0 
0.973795 -0.014301 0.0 
0.62072 0.370488 0.0 
1.02574 0.0604852 0.0 
1.01707 -0.0432048 0.0 
0.944866 -0.00427148 0.0 
0.595096 -0.347172 0.0 
1.00141 -0.143964 0.0 
0.953604 0.0609351 0.0 
0.999971 -0.00305745 0.0 
0.00286908 -0.000194796 0.0 
0.345831 0.0288101 0.0 
0 0 0.0 
0.63742 0.0892333 0.0 
2.90884e-05 -3.38953e-06 0.0 
0.878988 -0.0733878 0.0 
-6.24214e-204 -4.58826e-205 0.0 
0.9196 0.282728 0.0 
0.981303 -0.0254711 0.0 
1.00654 0 0.0 
0.935947 3.86549e-05 0.0 
1.00968 0.000955497 0.0 
1.02107 -0.00651211 0.0 
0.12124 0.0111106 0.0 
1.01044 -0.000358312 0.0 
0.194898 0.0543496 0.0 
0.165345 -0.0175066 0.0 
0.260014 -0.0288416 0.0 
0.0531816 -0.00208488 0.0 
0.418167 0.0174487 0.0 
0.0121777 0.000133401 0.0 
0.990966 0.00225966 0.0 
0.39845 -0.147917 0.0 
0.0804098 -0.00812224 0.0 
1.00537 -0.000285728 0.0 
0 0 0.0 
0.311228 0.26527 0.0 
-6.16495e-58 -2.59868e-59 0.0 
0.621248 -0.0376028 0.0 
0.65744 -0.286238 0.0 
0.124542 0.0176436 0.0 
-3.08305e-22 -7.34411e-24 0.0 
0.122966 0.00183242 0.0 
0.133183 0.00597913 0.0 
0 0 0.0 
0.846244 -0.0158255 0.0 
0 0 0.0 
-9.06734e-24 -5.24708e-25 0.0 
1.00002 0.000493738 0.0 
0.606686 0.315195 0.0 
0 0 0.0 
3.89462e-88 -2.21825e-89 0.0 
0.460492 -0.192626 0.0 
0.26568 0.0170399 0.0 
0.30547 0.0204249 0.0 
0 0 0.0 
0.28507 -0.00437507 0.0 
0.0431553 0.00194598 0.0 
0.999518 -0.0025247 0.0 
0.129092 0.00768954 0.0 
1.00843 -0.000594872 0.0 
0.265713 -0.0151747 0.0 
0 0 0.0 
0.646078 0.180637 0.0 
1.07377 -0.0968387 0.0 
1.04971 0.0741377 0.0 
5.02079e-20 -5.09609e-21 0.0 
0.197594 0.178652 0.0 
1.00814 0.000149433 0.0 
1.00861 -0.00115237 0.0 
0.156733 -0.0162626 0.0 
0.643429 0.046093 0.0 
1.01269 -0.00287644 0.0 
0.85308 -0.117766 0.0 
0.723856 0.044536 0.0 
-1.54536e-174 -2.65175e-175 0.0 
0.759473 0.197828 0.0 
-2.07015e-72 -1.59266e-73 0.0 
0.00795858 9.26548e-05 0.0 
0.433081 0.110604 0.0 
0.00283443 0.000331734 0.0 
0 0 0.0 
0.0111264 -0.000109223 0.0 
0.999492 0.00263158 0.0 
0.789616 0.16569 0.0 
0.0476816 0.0408835 0.0 
0.0541807 0.0100555 0.0 
1.07943 -0.201556 0.0 
0.389408 -0.0247878 0.0 
0.686544 -0.0463521 0.0 
0.25634 -0.026919 0.0 
0.00956945 0.000519804 0.0 
0.343612 -0.0256825 0.0 
0.424801 0.0143976 0.0 
0.706313 -0.000673746 0.0 
0.503621 0.00927685 0.0 
0.0560263 -0.000641448 0.0 
0.709392 -0.378432 0.0 
0 0 0.0 
6.06536e-84 1.91584e-85 0.0 
1.05668 0.0034579 0.0 
0.0916795 0.0359549 0.0 
0.450901 -0.00459077 0.0 
0 0 0.0 
0.528888 -0.057374 0.0 
1.00849 0.000495821 0.0 
1.00676 0.000217471 0.0 
0.00700029 -7.40174e-07 0.0 
1.00667 0.000329029 0.0 
0.0161062 -0.000584713 0.0 
1.00618 -0.00036018 0.0 
0.716362 -0.267798 0.0 
1.00779 0.00156831 0.0 
1.01048 -0.000797508 0.0 
0.0920846 0.0997035 0.0 
0.875871 -0.0114976 0.0 
0.817605 0.364361 0.0 
0.00778624 -0.000222656 0.0 
0.715518 0.336882 0.0 
0.0799464 0.0101826 0.0 
0.64708 0.256062 0.0 
0.711271 0.270841 0.0 
1.01033 0.000902217 0.0 
0.0170074 -0.000700802 0.0 
0.00943528 0.000434142 0.0 
0.276037 -0.347418 0.0 
0.0176458 0.000820312 0.0 
1.00716 -0.00464271 0.0 
0.176174 -0.0171864 0.0 
0.378378 -0.00134437 0.0 
0.676218 0.241332 0.0 
0.065936 -0.00159699 0.0 
0.708242 0.375298 0.0 
-6.05437e-59 -3.26126e-59 0.0 
1.0003 0 0.0 
0.557492 -0.063839 0.0 
0.539649 0.100214 0.0 
0.727396 0.308051 0.0 
1.00035 -0.00026658 0.0 
1e-307 1e-307 0.0 
0.344774 -0.0248659 0.0 
0.914313 0.0333017 0.0 
0.60843 -0.29258 0.0 
0.00372566 -0.000442147 0.0 
0.761824 0.305031 0.0 
0 0 0.0 
1.00188 -0.00276343 0.0 
1.00715 0.000292837 0.0 
0.0171435 -0.000561665 0.0 
1.01295 -0.131753 0.0 
0 0 0.0 
0.0830401 0.00719346 0.0 
0.284133 0.00954553 0.0 
0.424023 -0.12423 0.0 
-4.32343e-81 -1.67815e-82 0.0 
1 0 0.0 
0.579729 -0.434223 0.0 
0.645227 -0.305658 0.0 
0.999967 0.00202037 0.0 
0.448277 -0.100872 0.0 
0.540534 -0.0345008 0.0 
1.00001 0.00108197 0.0 
0.0102299 3.75197e-06 0.0 
-5.25287e-128 1.88779e-129 0.0 
0.00366332 -0.000631952 0.0 
0.495933 0.106391 0.0 
0.439112 0.0245725 0.0 
0.875144 0.313918 0.0 
0.000464456 3.72951e-05 0.0 
0.782075 0.134948 0.0 
0.719643 0.184541 0.0 
0.0172932 -0.000264084 0.0 
0 0 0.0 
1.00559 -0.000737428 0.0 
0.350133 0.240358 0.0 
0.0331208 -0.0117719 0.0 
0.120341 -0.0943953 0.0 
0.460825 -0.0419754 0.0 
0.138874 0.00504103 0.0 
0.607139 -0.0396761 0.0 
0.838584 0.00102138 0.0 
0 0 0.0 
0.00562932 0.000458681 0.0 
0 0 0.0 
0.748441 0.277241 0.0 
0.137829 0.0071915 0.0 
0.655606 0.115361 0.0 
1.04153 0.0988125 0.0 
0.150333 0.0178165 0.0 
5.75265e-09 8.66279e-10 0.0 
0.935885 -0.0990255 0.0 
1.05209 0.00124085 0.0 
0.491491 -0.0485525 0.0 
0.768396 0.364676 0.0 
0.746734 0.0632752 0.0 
0.579234 -0.0612303 0.0 
3.63657e-26 5.85069e-27 0.0 
0.863434 0.35429 0.0 
0.493402 -0.172357 0.0 
0.814167 0.356104 0.0 
0.00880721 -0.000888979 0.0 
1.00937 -0.00173639 0.0 
0.943246 -0.334571 0.0 
1.01649 0.00388872 0.0 
0.746413 -0.0900102 0.0 
0.00963544 0.000649706 0.0 
1.04384 -0.0952963 0.0 
0.0172343 0.00109704 0.0 
0 0 0.0 
0 0 0.0 
0.0431839 0.0104303 0.0 
0.609795 -0.46443 0.0 
0.415093 -0.00486927 0.0 
1.00921 -0.00250852 0.0 
0.0459237 -0.00982894 0.0 
0.406873 -0.00312949 0.0 
0.809853 0.127235 0.0 
0.019831 0.0006606 0.0 
0.455116 -0.0474537 0.0 
1 0 0.0 
0.00234905 -0.000172465 0.0 
0.0569344 0.0119371 0.0 
0.00292207 -0.000245574 0.0 
0.497318 -0.35376 0.0 
0.0161047 -0.00899061 0.0 
0 0 0.0 
-1.88247e-73 -1.12024e-74 0.0 
0 0 0.0 
0.697667 -0.448918 0.0 
0.767611 0.0872244 0.0 
0.103346 0.0413622 0.0 
5.7577e-11 2.76774e-14 0.0 
0.997991 -0.00215022 0.0 
0.122782 0.0196309 0.0 
0.096315 0.00482545 0.0 
0.772356 -0.290288 0.0 
0.00649276 0.000433102 0.0 
4.31425e-06 -3.3696e-07 0.0 
1.00773 -0.000201923 0.0 
0.133568 0.0673778 0.0 
0.171573 0.0126641 0.0 
1.00784 -0.000726145 0.0 
0.278783 -0.0315928 0.0 
1.01072 2.66097e-05 0.0 
1.01181 -0.0012716 0.0 
0.132387 0.00422797 0.0 
0.590687 0.0805012 0.0 
0.0430055 -0.0166689 0.0 
0.985628 -0.029336 0.0 
-5.3385e-191 -2.80175e-192 0.0 
0.0250768 0.00674344 0.0 
0.892601 -0.301522 0.0 
0.0294607 -0.000308175 0.0 
0.927347 9.81164e-05 0.0 
0.0109285 0.00117342 0.0 
0.133535 -0.0765541 0.0 
0.0130135 0.00111794 0.0 
0.861771 0.258261 0.0 
0.00664212 0.000503034 0.0 
1.00608 -0.000415901 0.0 
1.00984 0.00113799 0.0 
1.00298 0 0.0 
0.871828 -0.317874 0.0 
7.93361e-82 3.55762e-83 0.0 
1.86395e-38 2.05872e-39 0.0 
0.96603 0.304934 0.0 
0 0 0.0 
0.999926 -0.0022664 0.0 
0.834624 0.276848 0.0 
0.999677 0.000422113 0.0 
0.45439 0.160344 0.0 
0.0041803 -0.000486469 0.0 
1.0094 0.000148191 0.0 
1e-307 1e-307 0.0 
-3.33316e-163 -9.75621e-164 0.0 
1.00045 0.00516137 0.0 
0.0507832 -0.000229822 0.0 
0 0 0.0 
0.999637 -0.00159247 0.0 
0.0359462 -0.0835557 0.0 
0 0 0.0 
7.27887e-06 5.92132e-07 0.0 
1.01218 -0.294357 0.0 
1.00072 0.00352093 0.0 
0.323281 0.165431 0.0 
0.889509 -0.0275445 0.0 
0 0 0.0 
1.01495 0.0012929 0.0 
0.00687797 -0.00070479 0.0 
7.26702e-172 4.4121e-172 0.0 
0.0244369 0.00178993 0.0 
0 0 0.0 
1.00341 -0.00366762 0.0 
0.00741163 0.000562748 0.0 
1.00674 0.256607 0.0 
0.838343 0.199165 0.0 
1.01192 0.000642651 0.0 
-1.00857e-214 -7.41343e-216 0.0 
0.975479 0.282819 0.0 
0.0389881 0.00168358 0.0 
0.983027 0.0806583 0.0 
0.000387087 4.53879e-05 0.0 
0.00515486 0.000502643 0.0 
0.727075 0.191197 0.0 
1.00644 0 0.0 
0.677889 0.199053 0.0 
0.219308 0.00681645 0.0 
0.500589 0.151936 0.0 
1.00868 -0.00120388 0.0 
0.000768043 -5.69684e-05 0.0 
0.438991 -0.115899 0.0 
1.00895 -0.000758131 0.0 
1.03631 -0.272907 0.0 
0.999954 -0.000939243 0.0 
1 0 0.0 
0.951018 0.283275 0.0 
0.593388 -0.0729694 0.0 
0 0 0.0 
1.04273 -0.0403292 0.0 
0.940029 0.0317083 0.0 
0.536761 -0.0620574 0.0 
0.298838 -0.025937 0.0 
0.43439 0.052409 0.0 
-1.53293e-67 -2.31329e-69 0.0 
1.093 -0.0963687 0.0 
1.00808 -0.0448707 0.0 
1.01159 -0.000770326 0.0 
0.0485199 -0.00345025 0.0 
1.80322e-47 3.45036e-48 0.0 
7.54439e-99 -1.42655e-100 0.0 
6.72396e-90 5.43927e-90 0.0 
0.0433486 -0.00128493 0.0 
1.01315 -0.000398791 0.0 
0 0 0.0 
1 4.4574e-14 0.0 
0 0 0.0 
0.943739 -0.359623 0.0 
0.521348 0.01899 0.0 
0.693236 -0.289128 0.0 
0 0 0.0 
1.00994 -0.00168925 0.0 
1.00571 -0.000654574 0.0 
0 0 0.0 
0.0667181 0.0359403 0.0 
0.0080301 0.000477913 0.0 
1.00974 -0.00199647 0.0 
-6.27221e-232 -8.11868e-232 0.0 
0.650476 0.277536 0.0 
0.0488064 -0.00520435 0.0 
0.921859 -0.303207 0.0 
1.00003 0.000514392 0.0 
0.745805 -0.42866 0.0 
0.108187 -0.00232168 0.0 
0.161043 0.167867 0.0 
1.00973 0.00107746 0.0 
0.323241 -0.202506 0.0 
0.117695 -0.0214587 0.0 
0.819564 -0.245009 0.0 
0.905408 0.33176 0.0 
0.868858 -0.262556 0.0 
0.0193033 0.000306375 0.0 
1.06237 0.136057 0.0 
1.00071 -0.000592312 0.0 
0.0331637 -0.0150294 0.0 
1.01722 -0.111301 0.0 
0.843893 -0.00883375 0.0 
0.802404 -0.352217 0.0 
0.0381782 -0.00502638 0.0 
1.00586 -0.000330784 0.0 
0 0 0.0 
-8.51538e-75 1.43183e-75 0.0 
0.973109 0.193877 0.0 
1.00255 0.152479 0.0 
1.00898 0.0089783 0.0 
0.645098 -0.00940365 0.0 
0.570543 -0.0155073 0.0 
1.00738 0.000157198 0.0 
0.726884 -0.0935467 0.0 
0.00534557 -0.000152022 0.0 
1.13368e-07 9.38528e-09 0.0 
1.00908 0.000944954 0.0 
0.0214387 -0.000570849 0.0 
0 0 0.0 
0.620967 -0.446607 0.0 
1.00849 0.000206895 0.0 
1.00051 0.000588709 0.0 
0.947859 -0.0453535 0.0 
0.888549 0.346135 0.0 
1.01027 0.00144238 0.0 
1.00348 0.00402708 0.0 
0 0 0.0 
-4.30793e-67 5.68493e-68 0.0 
0 0 0.0 
0.603865 0.00635299 0.0 
0.125007 0.0230799 0.0 
-8.34648e-159 -2.44303e-159 0.0 
0.968808 -0.3417 0.0 
1.00924 0 0.0 
0.872865 -0.0447152 0.0 
-2.46575e-72 -5.59675e-74 0.0 
0.00868933 0.000442886 0.0 
0.823803 -0.109188 0.0 
0.849155 0.33161 0.0 
1.00873 0.000177008 0.0 
1.06228 -0.0564208 0.0 
1.00891 0.000766529 0.0 
0.997247 -0.00320291 0.0 
6.13978e-125 -4.98187e-125 0.0 
1.01043 0.270717 0.0 
0.561384 -0.208137 0.0 
0.00502105 0.000850018 0.0 
0 0 0.0 
0.805998 0.165304 0.0 
1.01155 -0.00216066 0.0 
0.842649 0.345818 0.0 
0.840859 0.322607 0.0 
0.846467 0.296973 0.0 
-1.06103e-60 -4.47253e-62 0.0 
0.150991 -0.0108609 0.0 
1.00001 -0.00053541 0.0 
0.881043 -0.0714284 0.0 
0.243117 0.23816 0.0 
1.08897 -0.143335 0.0 
0.616221 -0.116896 0.0 
1.00512 0 0.0 
0.194156 -0.0481907 0.0 
0.563728 0.0549863 0.0 
0 0 0.0 
1.83177e-114 -8.70861e-115 0.0 
0.447549 0.00122991 0.0 
0.1583 -0.252036 0.0 
0.244575 0.0442619 0.0 
0.219414 -0.0187399 0.0 
-4.77105e-35 -2.13324e-35 0.0 
0 0 0.0 
1.01099 -0.00136551 0.0 
0 0 0.0 
0.219986 -0.0314682 0.0 
9.04461e-14 -2.51178e-15 0.0 
0 0 0.0 
0.882934 0.341485 0.0 
6.00371e-12 3.37831e-13 0.0 
0.662011 0.00748868 0.0 
-1.9589e-121 1.66192e-122 0.0 
0.841105 0.341793 0.0 
1.47777e-94 1.2838e-95 0.0 
0.633954 0.195185 0.0 
1.07158 -0.218224 0.0 
0.353373 0.0904816 0.0 
1.01012 0.000668383 0.0 
0.735581 0.30212 0.0 
1.00864 0.00139218 0.0 
1.60424e-05 2.41603e-06 0.0 
0.619609 0.0108903 0.0 
1.00055 0.00243657 0.0 
0.284623 0.0627308 0.0 
0.0254439 -0.0135283 0.0 
0.594009 -0.0277549 0.0 
1.01149 0.0016074 0.0 
6.35362e-86 5.99839e-86 0.0 
0.0752731 0.015538 0.0 
0.859472 -0.40251 0.0 
0.226133 0.0238266 0.0 
1.00767 0.000156657 0.0 
0.0407217 0.00587471 0.0 
0.294099 0.11458 0.0 
0.0619832 -0.145006 0.0 
1.00427 0.00694339 0.0 
0.0143851 0.00122007 0.0 
0.678326 -0.367468 0.0 
1.00492 0.00113571 0.0 
0.999944 -0.000384539 0.0 
0.593717 -0.143035 0.0 
0.194018 -0.0271667 0.0 
0.00480327 0.000432703 0.0 
0.214498 -0.0306951 0.0 
0.841419 0.023376 0.0 
0.0164693 -0.000799465 0.0 
0.339327 -0.244817 0.0 
1.00053 0.00426384 0.0 
0.209286 0.00240463 0.0 
1.0138 -0.00104846 0.0 
0.999953 -0.000493163 0.0 
0.00948408 -0.000417978 0.0 
1.46855e-14 1.56259e-15 0.0 
0.892544 -0.247472 0.0 
0.350895 0.0507704 0.0 
0.112594 0.00190669 0.0 
0.311621 -0.262511 0.0 
0.303052 -0.0279097 0.0 
0.072731 -0.00826305 0.0 
1.00498 -0.00287437 0.0 
0.970308 -0.146107 0.0 
1.01414 0.115016 0.0 
0.470139 -0.0257877 0.0 
1.00847 -0.00148734 0.0 
0.00178149 -0.000473358 0.0 
0.0376323 -0.0086624 0.0 
0.739085 -0.456017 0.0 
0.215316 0.216587 0.0 
1.00853 -0.00102154 0.0 
0.00379418 0.000637433 0.0 
-8.10657e-157 1.03926e-158 0.0 
0.0703995 0.00605929 0.0 
0.811159 0.104693 0.0 
0.000413665 -3.50682e-05 0.0 
1.12567 0.0962344 0.0 
0.0643368 -0.00783629 0.0 
1.0068 0.000326329 0.0 
1.89902e-208 5.35115e-210 0.0 
1.00016 -0.000657152 0.0 
0.495707 0.23145 0.0 
0.526829 0.0956783 0.0 
0.891889 -0.368846 0.0 
0.982208 0.175258 0.0 
0.000136137 1.34384e-05 0.0 
0.00503345 -5.20236e-06 0.0 
0.985025 -0.0308495 0.0 
1.00745 0 0.0 
1.00561 0.0075138 0.0 
1.00728 -0.000284258 0.0 
1.00917 0.00080976 0.0 
0.99884 -0.000150719 0.0 
1.00719 -0.000844054 0.0 
5.20736e-56 1.00095e-56 0.0 
0 0 0.0 
0.597888 -0.016674 0.0 
0.324205 0.109384 0.0 
1.02768e-31 1.15639e-31 0.0 
0.259844 0.0110262 0.0 
0.00698489 0.000410526 0.0 
0.000275856 1.8209e-05 0.0 
1.00744 0.000791655 0.0 
0.0814958 0.0150764 0.0 
0.297508 0.175507 0.0 
1.00208 -0.0996336 0.0 
1.00743 0.000353803 0.0 
0 0 0.0 
1.00806 -0.00129276 0.0 
0.00726916 0.000716637 0.0 
0.853427 0.192853 0.0 
0.0231459 -0.00468035 0.0 
0.770396 -0.00230055 0.0 
2.87546e-07 -2.2182e-08 0.0 
1.00387 0.00268263 0.0 
0.0406277 -0.000226376 0.0 
0.445703 0.118293 0.0 
0.287185 -0.0316545 0.0 
-4.06536e-88 2.42025e-89 0.0 
0.906564 -0.391389 0.0 
0.22559 -0.0599661 0.0 
0.838665 -0.332232 0.0 
0.168879 0.0177061 0.0 
0.119456 0.0114683 0.0 
-3.50929e-173 -6.02176e-174 0.0 
1.00654 -0.000348452 0.0 
1.01506 0.00248518 0.0 
0.727833 0.0575599 0.0 
-6.58711e-58 -1.09831e-58 0.0 
1.01049 0.0048596 0.0 
9.22446e-05 -3.29188e-06 0.0 
0.828255 0.0629109 0.0 
0.718184 0.219308 0.0 
1.00818 0.000727557 0.0 
1.00661 -0.000951795 0.0 
0.0296038 0.00170057 0.0 
0.0287578 0.00895941 0.0 
3.566e-05 -5.65113e-06 0.0 
0.00171464 -0.000122561 0.0 
0.906508 0.282033 0.0 
0.185003 0.019161 0.0 