<VTKFile type="UnstructuredGrid" version="0.1" byte_order="LittleEndian">
  <UnstructuredGrid>
    <Piece NumberOfPoints="12788" NumberOfCells="25415">
      <Points>
        <DataArray type = "Float64" NumberOfComponents="3" format="ascii">
0 0 0.0 
14 0 0.0 
14 8 0.0 
0 8 0.0 
4.16782 4.09801 0.0 
4.14543 4.06343 0.0 
4.8474 4.18718 0.0 
4.15592 4.07043 0.0 
4.09208 3.95602 0.0 
3.97386 3.95644 0.0 
4.1154 4.0531 0.0 
3.93348 4.08313 0.0 
3.96554 4.00011 0.0 
4.45514 4.06612 0.0 
4.86852 3.99255 0.0 
4.8562 4.02537 0.0 
4.76074 4.05494 0.0 
4.58806 3.9785 0.0 
4.01323 3.99894 0.0 
4.91163 3.9943 0.0 
4.25007 4.10489 0.0 
4.17926 4.05465 0.0 
4.77878 3.98813 0.0 
4.01415 3.98535 0.0 
4.0106 4.0844 0.0 
7.49814 1.66258 0.0 
4.02027 3.93785 0.0 
4.53927 3.82455 0.0 
4.96284 4.02182 0.0 
4.36723 4.05555 0.0 
4.91567 3.99433 0.0 
11.7697 3.85875 0.0 
7.4525 3.894 0.0 
4.18123 4.0633 0.0 
4.17759 3.97818 0.0 
4.09533 4.03459 0.0 
4.00922 3.99881 0.0 
4.19874 3.93672 0.0 
4.35328 4.06181 0.0 
4.46874 4.08078 0.0 
3.93682 3.99751 0.0 
4.11094 4.03801 0.0 
4.38895 4.06987 0.0 
4.00578 3.99048 0.0 
4.57322 3.97787 0.0 
4.00131 3.99967 0.0 
4.84666 0.900212 0.0 
8.95652 3.61781 0.0 
4.01706 3.99618 0.0 
4.02815 4.04832 0.0 
4.55078 3.97726 0.0 
12.9978 2.6014 0.0 
13.1208 5.83902 0.0 
4.00392 4.01022 0.0 
4.79593 4.03439 0.0 
11.5775 5.81495 0.0 
4.89528 3.99458 0.0 
0.200421 3.56935 0.0 
3.99956 4.01717 0.0 
4.61386 4.06549 0.0 
4.01647 3.99236 0.0 
4.18458 4.04429 0.0 
4.01922 3.9934 0.0 
4.97466 4.02609 0.0 
4.1973 4.05198 0.0 
4.0339 4.05256 0.0 
9.36144 0.781322 0.0 
4.27006 4.09617 0.0 
11.8467 7.80818 0.0 
10.3427 4.78559 0.0 
4.04895 3.98471 0.0 
4.17785 3.95317 0.0 
4.12454 4.06455 0.0 
5.00785 4.00312 0.0 
10.8833 7.73481 0.0 
14 6.11123 0.0 
8.02673 1.61125 0.0 
4.12813 3.9578 0.0 
3.96293 3.99513 0.0 
4.04956 3.95606 0.0 
4.25738 4.07616 0.0 
12.6312 1.51295 0.0 
10.2829 8 0.0 
4.83515 3.9913 0.0 
5.00126 4.00219 0.0 
3.8042 3.74846 0.0 
3.99922 3.99464 0.0 
5.03684 4.01469 0.0 
4.66546 0.723526 0.0 
4.43886 3.97221 0.0 
4.0361 4.22831 0.0 
4.16149 4.0705 0.0 
5.07015 4.00673 0.0 
3.99423 4.00579 0.0 
14 5.21618 0.0 
4.85959 3.99222 0.0 
4.16001 3.96751 0.0 
4.00836 3.9943 0.0 
4.28749 4.07809 0.0 
3.94943 3.96456 0.0 
4.70289 8 0.0 
0.645476 1.78773 0.0 
4.80536 4.01156 0.0 
0.293813 2.30474 0.0 
5.012 4.10727 0.0 
4.22906 4.08121 0.0 
4.35343 3.94951 0.0 
3.96525 3.97863 0.0 
5.2424 4.03071 0.0 
3.05349 4.57182 0.0 
3.83785 4.02612 0.0 
11.2876 2.28585 0.0 
3.92281 3.95352 0.0 
4.37798 8 0.0 
4.12623 4.0709 0.0 
4.08373 4.05666 0.0 
4.09568 4.05562 0.0 
5.82192 4.11398 0.0 
4.9639 4.00818 0.0 
4.27852 0 0.0 
5.04845 4.04311 0.0 
4.38676 4.06919 0.0 
4.73176 4.04217 0.0 
13.5504 7.21021 0.0 
4.13434 4.07811 0.0 
4.04162 4.00806 0.0 
4.31033 1.42271 0.0 
4.08745 4.04479 0.0 
4.61488 3.98052 0.0 
10.3175 6.86369 0.0 
3.97602 5.32331 0.0 
4.59269 3.91266 0.0 
4.35017 3.94589 0.0 
4.36005 3.97505 0.0 
4.22225 3.98357 0.0 
4.10817 3.96062 0.0 
5.52872 3.97338 0.0 
4.1741 4.07586 0.0 
4.29449 3.96806 0.0 
4.44221 7.65296 0.0 
5.72728 4.0124 0.0 
4.03658 4.01186 0.0 
11.0257 3.92538 0.0 
4.973 3.99743 0.0 
3.91267 2.38613 0.0 
4.02873 4.0411 0.0 
4.88146 4.04087 0.0 
4.89353 4.01921 0.0 
4.08859 4.05676 0.0 
4.0826 3.93583 0.0 
4.16642 4.11068 0.0 
4.12124 3.98374 0.0 
3.99577 3.99636 0.0 
8.58677 4.57205 0.0 
3.98196 3.98783 0.0 
4.24743 3.99271 0.0 
4.02169 4.00411 0.0 
4.99458 4.03862 0.0 
4.27576 4.05018 0.0 
4.02244 4.02798 0.0 
4.44585 4.04261 0.0 
4.12635 4.07409 0.0 
0 1.4212 0.0 
4.25778 4.0794 0.0 
4.42641 3.97239 0.0 
4.02687 3.9777 0.0 
3.91231 4.09552 0.0 
13.2239 4.6105 0.0 
4.18621 4.06292 0.0 
2.84695 6.56376 0.0 
4.9908 4.01037 0.0 
5.01331 3.98969 0.0 
4.0644 3.93891 0.0 
3.8803 3.95001 0.0 
3.99959 3.99949 0.0 
4.81671 3.99012 0.0 
4.99278 3.91924 0.0 
4.5889 4.0572 0.0 
4.19206 3.91938 0.0 
5.81702 3.84848 0.0 
4.41558 4.05658 0.0 
4.09641 3.95124 0.0 
4.12454 3.92729 0.0 
4.08491 4.0641 0.0 
3.96293 4.03138 0.0 
4.06298 3.99231 0.0 
4.35916 4.0592 0.0 
4.23532 3.95103 0.0 
12.5336 5.31907 0.0 
3.99252 4.00665 0.0 
4.27922 4.06659 0.0 
4.17636 4.06982 0.0 
4.01378 4.004 0.0 
4.82641 3.9902 0.0 
3.94066 3.96869 0.0 
4.39074 4.07642 0.0 
3.95819 3.97698 0.0 
9.45179 5.45657 0.0 
4.70169 4.04617 0.0 
4.23165 4.07938 0.0 
4.40792 6.2929 0.0 
4.15636 4.04974 0.0 
3.95778 3.98461 0.0 
4.64677 4.05199 0.0 
3.9419 3.97853 0.0 
4.19057 4.05281 0.0 
4.10081 3.94382 0.0 
12.6108 1.83155 0.0 
4.25904 3.9411 0.0 
6.88398 4.79117 0.0 
3.99651 4.05409 0.0 
4.79816 4.03427 0.0 
4.2628 4.07287 0.0 
5.00368 4.02219 0.0 
4.34682 4.05412 0.0 
3.9771 4.03148 0.0 
4.19705 4.04896 0.0 
4.81748 3.97698 0.0 
10.4368 5.07759 0.0 
4.15561 4.10177 0.0 
4.18309 4.12442 0.0 
3.96476 4.03852 0.0 
4.39631 4.08365 0.0 
6.49994 5.82534 0.0 
3.96822 4.02719 0.0 
3.97233 4.04194 0.0 
3.98573 3.91699 0.0 
4.53926 3.97821 0.0 
2.32868 6.90718 0.0 
4.20876 3.92492 0.0 
3.92251 4.00785 0.0 
4.58449 4.0566 0.0 
4.30929 4.04286 0.0 
12.4727 0.827649 0.0 
5.15491 3.95658 0.0 
4.04278 3.97999 0.0 
4.87802 3.97667 0.0 
4.27231 0.148249 0.0 
4.63581 3.98088 0.0 
4.204 4.03826 0.0 
3.94564 3.99975 0.0 
3.99849 4.00548 0.0 
4.27759 4.05614 0.0 
4.00612 4.04547 0.0 
5.0401 4.02083 0.0 
4.98371 4.01321 0.0 
4.48599 4.06382 0.0 
2.3015 0.745221 0.0 
4.44517 3.97331 0.0 
8.11207 0.455283 0.0 
4.00756 4.02287 0.0 
4.32839 4.08109 0.0 
6.95216 7.71549 0.0 
4.36888 4.08399 0.0 
4.1384 3.95607 0.0 
4.08583 4.02136 0.0 
2.07324 4.66252 0.0 
4.04446 4.03149 0.0 
4.09346 4.05988 0.0 
4.05428 3.94079 0.0 
9.70989 7.75915 0.0 
4.13883 3.99016 0.0 
4.02341 4.03456 0.0 
12.2707 4.28985 0.0 
4.52724 7.41561 0.0 
5.05919 4.01855 0.0 
5.00129 3.99352 0.0 
3.96416 4.09294 0.0 
4.22714 3.92146 0.0 
4.00554 4.01182 0.0 
4.60397 3.95864 0.0 
8.9441 8 0.0 
4.37377 3.94452 0.0 
4.79157 4.03451 0.0 
4.06103 3.9941 0.0 
4.61822 3.97998 0.0 
1.24078 0.550265 0.0 
9.10545 7.45594 0.0 
2.38032 0.204862 0.0 
4.75367 4.03996 0.0 
4.22584 4.06787 0.0 
4.89193 4.01976 0.0 
11.5927 7.20396 0.0 
4.01517 4.03055 0.0 
3.99442 3.99468 0.0 
3.99882 3.99972 0.0 
4.02507 4.01902 0.0 
0.162242 0.338835 0.0 
5.1555 4.17357 0.0 
1.90059 7.32186 0.0 
3.99908 3.98836 0.0 
8.76112 4.31939 0.0 
4.12151 3.94609 0.0 
4.00436 3.99818 0.0 
14 0.627351 0.0 
5.06785 4.12387 0.0 
4.21507 3.9482 0.0 
3.99926 3.9979 0.0 
4.97222 4.02124 0.0 
1.22564 1.09337 0.0 
4.88982 4.04256 0.0 
6.25452 4.08467 0.0 
2.3482 3.72305 0.0 
4.62565 3.98116 0.0 
4.38043 3.97101 0.0 
13.5856 5.01929 0.0 
4.97355 3.97824 0.0 
4.19469 3.96793 0.0 
5.1327 4.04445 0.0 
4.90936 4.01765 0.0 
10.4895 4.55671 0.0 
4.50179 4.06423 0.0 
4.47779 4.09651 0.0 
5.01074 4.00406 0.0 
6.90624 3.86399 0.0 
4.00126 4.01985 0.0 
3.9901 3.98452 0.0 
4.12408 3.94161 0.0 
13.0547 5.57088 0.0 
4.05466 4.02621 0.0 
4.30541 3.96873 0.0 
4.08146 3.94143 0.0 
4.40066 3.94131 0.0 
5.13925 3.98686 0.0 
4.03513 3.9876 0.0 
8.33815 1.56787 0.0 
10.709 1.4165 0.0 
4.11851 4.05833 0.0 
4.32762 4.05648 0.0 
8.88306 2.11649 0.0 
4.17969 4.07871 0.0 
4.2411 3.96771 0.0 
12.4866 3.70857 0.0 
4.44936 3.91414 0.0 
4.03016 3.93429 0.0 
3.99176 3.9942 0.0 
3.59386 3.60045 0.0 
4.11582 3.86347 0.0 
1.89337 4.05759 0.0 
4.14287 4.03378 0.0 
3.99224 4.00372 0.0 
4.53553 4.06199 0.0 
4.2489 4.09629 0.0 
5.06347 3.99507 0.0 
4.05693 3.98896 0.0 
4.2295 4.0772 0.0 
4.0017 4.00679 0.0 
5.08198 4.04957 0.0 
5.02947 4.00625 0.0 
4.91874 4.00714 0.0 
1.0451 4.03774 0.0 
12.7903 3.78073 0.0 
9.50392 2.56195 0.0 
4.20902 3.94092 0.0 
4.06762 4.05479 0.0 
4.06992 3.97184 0.0 
4.09289 4.07118 0.0 
4.32067 4.07795 0.0 
3.99883 4.01382 0.0 
4.64512 4.08538 0.0 
3.95731 3.9912 0.0 
4.34941 4.12037 0.0 
4.00094 4.00583 0.0 
4.09191 3.97004 0.0 
4.01165 4.04753 0.0 
4.14761 3.96188 0.0 
4.86979 4.05402 0.0 
4.02698 3.94093 0.0 
4.23985 4.08128 0.0 
3.97395 3.93516 0.0 
4.13381 4.04659 0.0 
9.31288 3.91738 0.0 
4.60012 4.05623 0.0 
3.99752 4.02893 0.0 
4.01884 3.99521 0.0 
4.26259 4.0847 0.0 
4.99903 4.15106 0.0 
3.33181 3.6759 0.0 
7.0447 8 0.0 
3.42163 7.42917 0.0 
6.24959 7.79892 0.0 
3.88357 4.09673 0.0 
4.01204 4.00974 0.0 
4.9921 3.96662 0.0 
4.24419 3.97862 0.0 
5.00577 4.05601 0.0 
4.08637 3.98671 0.0 
8.1554 7.24604 0.0 
6.7455 7.48782 0.0 
13.4409 6.9674 0.0 
4.00774 3.99043 0.0 
1.52849 1.81588 0.0 
4.27454 4.0634 0.0 
4.0911 3.98345 0.0 
4.14295 3.97632 0.0 
4.81859 3.78324 0.0 
4.90784 4.03019 0.0 
4.14181 3.96885 0.0 
5.40744 6.35659 0.0 
5.0218 3.98124 0.0 
4.39137 3.97157 0.0 
4.19507 4.0651 0.0 
4.0766 3.95386 0.0 
5.10311 4.0306 0.0 
3.98562 4.0511 0.0 
5.07095 2.11145 0.0 
4.97561 3.998 0.0 
11.821 3.46845 0.0 
4.08645 3.96932 0.0 
3.66733 4.19402 0.0 
3.98027 4.05285 0.0 
4.32406 4.07054 0.0 
4.18361 4.3025 0.0 
3.98628 3.99582 0.0 
4.97393 3.99745 0.0 
4.13818 4.07615 0.0 
4.22898 4.08419 0.0 
4.04077 3.99338 0.0 
4.12537 4.05679 0.0 
4.75584 4.03985 0.0 
4.10231 3.92419 0.0 
4.35247 4.0709 0.0 
13.1066 7.48347 0.0 
4.15206 3.96747 0.0 
4.97188 4.00563 0.0 
13.4588 2.01213 0.0 
11.4002 1.66123 0.0 
4.37656 3.7842 0.0 
6.82959 6.43656 0.0 
4.35356 4.08435 0.0 
10.3864 0.53398 0.0 
5.18793 4.05304 0.0 
4.63499 4.21004 0.0 
4.58601 3.97853 0.0 
4.48795 4.06365 0.0 
4.2894 4.08496 0.0 
3.98111 4.00805 0.0 
9.66891 1.90447 0.0 
11.233 0.251178 0.0 
5.05289 4.02468 0.0 
3.99352 3.97666 0.0 
4.17387 3.91323 0.0 
1.98959 1.68137 0.0 
4.67002 3.84867 0.0 
5.0542 4.01438 0.0 
3.98468 3.9804 0.0 
4.27492 4.05293 0.0 
4.10308 3.95678 0.0 
9.79901 5.26367 0.0 
4.11406 4.11188 0.0 
4.01344 3.94226 0.0 
4.36668 4.06816 0.0 
12.3354 6.04076 0.0 
4.80924 3.98913 0.0 
3.98206 3.97395 0.0 
12.9901 3.16776 0.0 
4.25805 4.06679 0.0 
8.41056 7.58029 0.0 
13.2262 0 0.0 
8.92204 1.29469 0.0 
4.04062 4.0139 0.0 
4.12006 3.96713 0.0 
11.2285 4.75946 0.0 
4.00375 4.03912 0.0 
4.27475 4.10642 0.0 
3.87319 3.61895 0.0 
3.99121 4.03339 0.0 
3.99417 4.04189 0.0 
4.19293 3.95524 0.0 
4.99792 4.00273 0.0 
4.1028 4.04936 0.0 
4.46639 4.07788 0.0 
4.33548 4.07298 0.0 
6.86406 0 0.0 
[...]
<PointData>
  <DataArray type = "Float64" Name="Vitesse" NumberOfComponents="3" format="ascii">
1 0 0.0 
1.00234 0 0.0 
0.999878 0 0.0 
1 0 0.0 
1.02944 0.17284 0.0 
0.319976 0.0541644 0.0 
1.06568 -0.0364931 0.0 
0.509682 0.0815238 0.0 
0.622247 -0.0816797 0.0 
0.808511 -0.215408 0.0 
0.104309 0.020137 0.0 
0.850213 0.104534 0.0 
0.645894 -0.0586645 0.0 
0.0059535 -0.000282856 0.0 
0.00329164 0.00025416 0.0 
0.00210217 -0.00030567 0.0 
0.118495 -0.0118082 0.0 
0.0111593 0.000849567 0.0 
0 0 0.0 
0.00459358 0.000619824 0.0 
0.948311 0.0977337 0.0 
0 0 0.0 
0.00476648 0.000447059 0.0 
0.072081 -0.0339499 0.0 
0.884417 0.244733 0.0 
1.00903 0.00102272 0.0 
0.976139 -0.277469 0.0 
1.0725 -0.0110108 0.0 
0.0417718 -0.00614927 0.0 
0 0 0.0 
0.00720096 0.000672566 0.0 
0.927019 0.00719758 0.0 
0.858817 0.0043016 0.0 
0.112091 0.0114357 0.0 
0 0 0.0 
0 0 0.0 
0 0 0.0 
0.754403 -0.0409711 0.0 
0 0 0.0 
0.251184 -0.00743845 0.0 
0.763252 -0.0388158 0.0 
0 0 0.0 
0.0320599 -0.00132247 0.0 
0.0692438 -0.0601934 0.0 
0.0105736 0.000931909 0.0 
4.31195e-32 -8.99083e-32 0.0 
1.00806 -0.00149244 0.0 
1.01004 0.00170515 0.0 
0 0 0.0 
0.835121 0.359354 0.0 
0.00506544 0.000200094 0.0 
1.00029 0.00495587 0.0 
0.998593 -0.00330563 0.0 
1.57669e-06 1.80021e-06 0.0 
0.00516247 -0.000719419 0.0 
1.00402 -0.00474734 0.0 
5.38797e-14 -1.08704e-16 0.0 
0.999998 -3.19063e-05 0.0 
0.396944 0.309506 0.0 
0.114989 -0.00874337 0.0 
0 0 0.0 
0 0 0.0 
0 0 0.0 
0.0664434 -0.0100482 0.0 
0 0 0.0 
0.867902 0.349394 0.0 
1.00748 0.000300296 0.0 
0.756075 0.0629437 0.0 
1.00283 -0.000334589 0.0 
1.00837 -0.0036644 0.0 
0 0 0.0 
0.396143 -0.0166101 0.0 
0.521078 0.0993188 0.0 
0.0247928 -0.00485088 0.0 
1.00455 -0.000450099 0.0 
0.998861 -0.0011679 0.0 
1.00858 0.000847903 0.0 
0.38014 -0.0282676 0.0 
0.670983 -0.0822979 0.0 
0.933316 -0.233935 0.0 
0.281898 0.0198275 0.0 
1.00394 0.00242773 0.0 
1.00546 0 0.0 
5.75599e-06 6.43204e-07 0.0 
0.010529 -0.00753233 0.0 
0.966961 -0.0501341 0.0 
0.198348 -0.293422 0.0 
0.0617517 -0.00942068 0.0 
1.00742 -0.00132792 0.0 
0.0137056 0.000460896 0.0 
0.99835 0.128465 0.0 
0.47842 0.0715634 0.0 
0.0925818 0.00136785 0.0 
0.223056 0.0384025 0.0 
0.995993 0.000658596 0.0 
8.64386e-15 5.09473e-16 0.0 
0.019554 -0.000880544 0.0 
0 0 0.0 
0.273528 0.0138958 0.0 
0.794447 -0.131123 0.0 
1.00837 0 0.0 
1.00005 -0.000601475 0.0 
0 0 0.0 
0.999995 -0.000272738 0.0 
0.73883 -0.0497015 0.0 
0.507409 0.0489437 0.0 
0.347758 0.00408336 0.0 
0.719063 -0.157851 0.0 
0.247115 -0.0122291 0.0 
0.991162 0.0110861 0.0 
0.887732 0.00771473 0.0 
1.00789 0.00283858 0.0 
0.841478 -0.0928478 0.0 
1.00776 0 0.0 
0.718178 0.143346 0.0 
0.609643 0.162228 0.0 
0.435316 0.108698 0.0 
0.839293 -0.018221 0.0 
0.00169512 -0.0001801 0.0 
1.00624 0 0.0 
0.197248 -0.0263016 0.0 
0.016737 6.16416e-05 0.0 
0.00322349 -0.000198653 0.0 
1.00005 -0.000839467 0.0 
0.851122 0.167531 0.0 
0 0 0.0 
1.00786 -0.00353494 0.0 
7.36788e-09 1.96359e-09 0.0 
5.90037e-12 7.64211e-13 0.0 
1.00579 -0.00164453 0.0 
1.01347 0.0161584 0.0 
0.806067 0.01013 0.0 
0.413069 0.00302311 0.0 
2.15319e-32 2.41226e-33 0.0 
0 0 0.0 
0.358591 -0.0336668 0.0 
0.450653 0.0115712 0.0 
0.581812 0.0828362 0.0 
0.0149243 -5.92121e-05 0.0 
1.00804 0.00077004 0.0 
0.419104 -0.00255932 0.0 
0 0 0.0 
0.859694 3.59051e-06 0.0 
0.00383549 0.000372232 0.0 
1.00788 -0.00964006 0.0 
0.731822 0.332379 0.0 
0.0937822 -0.010703 0.0 
2.86485e-05 -1.89969e-06 0.0 
0.558997 0.144124 0.0 
1.0616 -0.192198 0.0 
1.09049 0.183662 0.0 
0 0 0.0 
0.245179 -0.292244 0.0 
1.00897 -0.00362053 0.0 
0.590037 -0.227857 0.0 
0 0 0.0 
0 0 0.0 
0.145386 -0.020909 0.0 
0 0 0.0 
0.335437 0.176475 0.0 
0 0 0.0 
0.802412 0.163668 0.0 
1 0 0.0 
0.373414 0.027695 0.0 
0.00535121 0.000697547 0.0 
0.305034 -0.102262 0.0 
0.874059 0.0867331 0.0 
1.00508 -0.00525995 0.0 
0.0780472 0.00998554 0.0 
1.00359 0.00412143 0.0 
0.0196573 -0.00532195 0.0 
0.105532 0.0188067 0.0 
1.06032 -0.227744 0.0 
0.87507 -0.0557947 0.0 
0.0304226 -0.0824947 0.0 
0.000664203 5.32758e-05 0.0 
0.739922 0.0318527 0.0 
0.00587902 -0.000715674 0.0 
1.0186 -0.0783684 0.0 
0.974285 0.0125884 0.0 
0 0 0.0 
0.753234 -0.102004 0.0 
1.05418 -0.13414 0.0 
0.82445 0.224945 0.0 
0.706801 0.096363 0.0 
0 0 0.0 
0 0 0.0 
0.37151 -0.00640291 0.0 
0.995519 -0.00753899 0.0 
0.283404 0.0464723 0.0 
4.18044e-41 5.02912e-42 0.0 
0.371713 0.0481875 0.0 
0 0 0.0 
0.00516072 0.0004151 0.0 
0.797654 -0.106103 0.0 
0.162391 -0.000768096 0.0 
0.743134 -0.13514 0.0 
1.00799 -0.00283106 0.0 
0.00715384 -0.000610427 0.0 
0.446116 0.0409587 0.0 
1.01142 0.00476046 0.0 
0 0 0.0 
0.720327 -0.11246 0.0 
0.00652115 -0.000371048 0.0 
0.775777 -0.0909577 0.0 
0 0 0.0 
0.915405 -0.13134 0.0 
1.00365 0.00318856 0.0 
0.565267 -0.0115978 0.0 
1.01064 -0.00554088 0.0 
0.77719 0.263125 0.0 
0.00603188 -0.000756987 0.0 
0.173217 0.0101399 0.0 
0.0630193 -0.017654 0.0 
-2.02593e-155 -8.80655e-157 0.0 
0.661632 0.15547 0.0 
0 0 0.0 
0.129967 0.0059092 0.0 
1.00821 -0.00413708 0.0 
1.06705 0.19154 0.0 
1.10694 0.168718 0.0 
0.724167 0.121783 0.0 
0.307951 0.000191172 0.0 
1.01211 -0.00291817 0.0 
0.673527 0.0997611 0.0 
0.721711 0.156398 0.0 
0.919518 -0.195002 0.0 
-5.62579e-50 -6.62279e-51 0.0 
1.00233 0.00245245 0.0 
0.93388 -0.0579477 0.0 
0.792652 -0.0102907 0.0 
3.07564e-32 -2.0729e-34 0.0 
0 0 0.0 
1.00437 0.001219 0.0 
0.447783 0.0285258 0.0 
6.16648e-28 -7.97556e-29 0.0 
0.158451 0.00732088 0.0 
1.00629 -0.000314156 0.0 
0.00954908 0.000447717 0.0 
0 0 0.0 
0.736209 -0.0391692 0.0 
0.077215 0.0628338 0.0 
2.26386e-155 1.97402e-156 0.0 
0.761482 0.32789 0.0 
0.0775571 -0.0141013 0.0 
0.0230557 -0.00472456 0.0 
2.8734e-13 -1.13957e-15 0.0 
1.00182 -0.00130738 0.0 
1.89898e-05 7.94694e-07 0.0 
1.00788 0.000188972 0.0 
0.47527 0.3309 0.0 
0.294596 0.00738275 0.0 
1.00896 -0.000248437 0.0 
0.326902 0.00299909 0.0 
0.40522 -0.0271585 0.0 
0 0 0.0 
0.997508 0.00344003 0.0 
6.83917e-22 1.63908e-22 0.0 
0.626695 0.159107 0.0 
1.05433 -0.24933 0.0 
1.00628 -0.00028818 0.0 
0 0 0.0 
0.610893 0.306439 0.0 
0.972476 -0.0140937 0.0 
1.00846 0.00118675 0.0 
0.0871666 -0.00951384 0.0 
0.0641863 0.0140677 0.0 
0.859511 0.153015 0.0 
0.946499 -0.053205 0.0 
1.056e-73 5.42896e-74 0.0 
0.252563 0.0091136 0.0 
1.00699 0 0.0 
0.43102 0.00416733 0.0 
0.00302526 -0.000249158 0.0 
0 0 0.0 
0.00921989 0.000709226 0.0 
1.00049 -0.000463585 0.0 
1.00696 -0.000522591 0.0 
1.00201 -0.000372732 0.0 
0.00565094 -0.000574213 0.0 
0.107632 0.00616168 0.0 
0.00145834 -9.79588e-05 0.0 
1.00339 -0.00148872 0.0 
0.603285 0.336835 0.0 
0.329234 -0.32444 0.0 
0.0490858 -0.117468 0.0 
1.75488e-99 6.78571e-100 0.0 
1 -3.12079e-05 0.0 
1.00828 -0.0425096 0.0 
1.00156 0.00118405 0.0 
0.477557 -0.445582 0.0 
1.00807 -0.00490347 0.0 
0.771512 -0.0831564 0.0 
0 0 0.0 
1.00225 0.000676981 0.0 
0.858095 -0.0505819 0.0 
0.462122 -0.0133695 0.0 
0.072368 -0.156275 0.0 
0.0443507 -0.00690798 0.0 
1.0004 -0.000868857 0.0 
0.109679 -0.0122597 0.0 
0.734161 -0.0104983 0.0 
0.99528 -0.00105674 0.0 
4.77616e-06 3.54126e-07 0.0 
0.00665211 0.000418726 0.0 
0.999208 -6.96381e-05 0.0 
0.187378 0.0112696 0.0 
8.97528e-09 -1.84968e-11 0.0 
0.255652 -0.022771 0.0 
0.00301171 -0.000353263 0.0 
1.01032 -0.00328273 0.0 
0.0134606 0.000455279 0.0 
0.525461 -0.00779094 0.0 
0.0293703 -0.00492867 0.0 
0.928186 0.00538893 0.0 
0.452449 0.337249 0.0 
0.59413 -0.346065 0.0 
0.868449 -0.0974287 0.0 
0.99599 -0.00398545 0.0 
0 0 0.0 
0.00716071 0.00046413 0.0 
1.02158 -0.184814 0.0 
0.478468 0.00413638 0.0 
0.216648 0.0160363 0.0 
0 0 0.0 
1.00834 0.000706692 0.0 
1.00702 0.00128298 0.0 
0.322435 0.0613686 0.0 
-4.50668e-151 -1.95901e-152 0.0 
1.00831 0.000854037 0.0 
0.637537 0.089665 0.0 
0.00014437 5.2895e-06 0.0 
0.991712 0.0104842 0.0 
0.839081 -0.00103856 0.0 
1.00472 -0.266407 0.0 
0.393439 -0.29313 0.0 
0.981498 -0.025429 0.0 
1.06707 -0.127769 0.0 
0.997246 0.000949982 0.0 
-1.61074e-260 -2.75866e-261 0.0 
0.270085 -0.040582 0.0 
0.0122403 -0.000777938 0.0 
0.810881 0.0789829 0.0 
0.1212 0.01108 0.0 
0 0 0.0 
0.388868 0.0349963 0.0 
1.42959e-44 1.63218e-44 0.0 
0.26039 -0.0288342 0.0 
0.0531354 -0.00212733 0.0 
-3.87719e-62 3.54279e-63 0.0 
0.999352 0.000382238 0.0 
0.987775 0.00821741 0.0 
1.00815 0.000985301 0.0 
0.643198 -0.0278268 0.0 
0.718616 0.219967 0.0 
0.0759169 -0.00763518 0.0 
0.918343 0.238772 0.0 
0.226289 0.00621631 0.0 
0.311359 0.265788 0.0 
0.383892 -0.0221225 0.0 
0.704987 -0.0871619 0.0 
0.9884 0.0513621 0.0 
0.0161168 0.027071 0.0 
0.044409 -0.0014374 0.0 
0.7907 0.342482 0.0 
0.197061 -0.00850915 0.0 
0.182367 -0.0180165 0.0 
0.997664 -0.286477 0.0 
0.474157 0.0423788 0.0 
0.872227 -0.197181 0.0 
0 0 0.0 
0.835629 0.00524602 0.0 
0.00724607 -0.000583976 0.0 
0.607633 0.315678 0.0 
0 0 0.0 
0.505316 0.0382265 0.0 
0.983316 -0.0488163 0.0 
0.982687 -0.0109153 0.0 
1.00872 0 0.0 
1.00538 0.00164547 0.0 
1.00942 -8.36111e-05 0.0 
0.887023 0.0654317 0.0 
0 0 0.0 
0.308303 0.0213446 0.0 
2.76673e-76 1.59601e-77 0.0 
0.278079 -0.0309398 0.0 
0 0 0.0 
1.00792 -0.00070231 0.0 
1.00923 -0.000411297 0.0 
1.00001 -0.00117393 0.0 
-7.60144e-177 4.11298e-177 0.0 
1.00032 -0.00173088 0.0 
4.92349e-82 4.07754e-83 0.0 
0 0 0.0 
0 0 0.0 
1.05498 0.00995429 0.0 
0.0497103 -0.00641753 0.0 
7.52836e-10 -7.14698e-12 0.0 
1.01272 0.000571575 0.0 
0.181138 0.023663 0.0 
5.11439e-05 6.9671e-06 0.0 
0.11707 0.0167098 0.0 
0.800948 -0.140315 0.0 
0.156837 -0.016219 0.0 
0.75281 0.219791 0.0 
1.01261 -0.0026779 0.0 
0.000340782 2.17954e-05 0.0 
1.02156 0.00986967 0.0 
0.0964216 -0.00700069 0.0 
0.95735 0.0287305 0.0 
0.759525 0.197909 0.0 
0.0414918 0.000568857 0.0 
1.05549 0.0945432 0.0 
0.460715 -0.191769 0.0 
0.00440094 0.000439877 0.0 
0.785659 0.148951 0.0 
0.589686 0.0593364 0.0 
0 0 0.0 
0.191102 0.0321941 0.0 
0.00659559 -0.000706973 0.0 
1.08568 -0.166246 0.0 
0.0469392 -0.00203359 0.0 
1.00069 -0.000694912 0.0 
0.0233557 0.00188656 0.0 
1.21796e-05 -1.55131e-06 0.0 
1.00227 0.00271359 0.0 
1.00662 0.0021471 0.0 
1.07156 -0.0358984 0.0 
1.0104 -0.00172031 0.0 
0.346902 0.00502556 0.0 
1.00688 0.000413575 0.0 
0.343991 -0.0256954 0.0 
1.1012 -0.00802549 0.0 
0.00969167 0.000577245 0.0 
3.91364e-14 -1.46361e-15 0.0 
0.450242 0.0262741 0.0 
0.504094 0.00985711 0.0 
1.00791 0.000842269 0.0 
1.006 0.000287577 0.0 
0.0998131 -0.014979 0.0 
0.707912 -0.377986 0.0 
1.07348 -0.0982064 0.0 
1.00081 -0.00238125 0.0 
1.05596 0.0033978 0.0 
0.0770621 -0.00653986 0.0 
0.65647 -0.285772 0.0 
0 0 0.0 
0.527451 -0.0575828 0.0 
1.00808 -0.00316592 0.0 
1.06374 0.221982 0.0 
0.951142 -0.288739 0.0 
1.12724e-05 8.78838e-08 0.0 
1.00153 -0.00427189 0.0 
0.0081215 0.000485886 0.0 
0.715457 -0.267242 0.0 
1.00201 0.0059055 0.0 
1.225e-46 3.17693e-48 0.0 
1.00759 -0.00037137 0.0 
1.00325 0 0.0 
1.00788 0.000458434 0.0 
0 0 0.0 
0.0785374 0.0014937 0.0 
1.01037 -0.00813218 0.0 
0.716188 0.337092 0.0 
0.92396 0.080249 0.0 
0.990972 -0.0509762 0.0 
0.647765 0.256502 0.0 
0.711767 0.271124 0.0 
0.316217 -0.00911831 0.0 
0.00690004 -0.00253617 0.0 
0.0455829 0.00590581 0.0 
0.200876 -0.00653135 0.0 
0.0960227 0.00239494 0.0 
1.00829 7.44009e-15 0.0 
1.00723 -0.00276398 0.0 
1.0094 0.000858898 0.0 
1.01011 0.000551488 0.0 
1.00846 0.000100239 0.0 
0.0912475 -0.0103489 0.0 
1.00787 -0.000430908 0.0 
0.676774 0.241718 0.0 
1.00113 0 0.0 
0.80604 0.197899 0.0 
0.70876 0.375395 0.0 
1.00532 -0.00212098 0.0 
0.00975815 0.000749351 0.0 
0.556083 -0.0638058 0.0 
1.00235 0.00124303 0.0 
0.539687 0.0985251 0.0 
0.727971 0.308288 0.0 
1.00035 -0.000263845 0.0 
0.90471 0.0260242 0.0 
0.0617925 -0.00808932 0.0 
0.345187 -0.024302 0.0 
1.17884e-11 -3.24855e-12 0.0 
0.60764 -0.291664 0.0 
0.0952053 -0.000921843 0.0 
0.0105176 0.000652848 0.0 
0.0609561 -0.0501341 0.0 
0.944509 -0.0352599 0.0 
0 0 0.0 
0.52114 -0.0277801 0.0 
1.00188 -0.00273714 0.0 
0.646646 0.181125 0.0 
0.171552 0.0070148 0.0 
0.000405797 -1.7246e-05 0.0 
0.762198 0.30551 0.0 
0.132218 0.00844431 0.0 
0.00490566 -0.000109478 0.0 
0 0 0.0 
0.424448 -0.123534 0.0 
1.0087 -0.00295857 0.0 
0.0510256 0.0620771 0.0 
0.578055 -0.432976 0.0 
1.00146 -0.000850607 0.0 
0.977886 -0.00252117 0.0 
1.00031 0 0.0 
0.448634 -0.10032 0.0 
0.540932 -0.0338764 0.0 
0 0 0.0 
0 0 0.0 
0.854162 0.215831 0.0 
0.722162 0.0552072 0.0 
0.496484 0.107134 0.0 
1.01064 0.00327223 0.0 
0.0663246 -0.00150788 0.0 
0.781065 0.366789 0.0 
0.00172809 -0.000348846 0.0 
0.161579 -0.00993184 0.0 
4.35332e-17 -2.66778e-18 0.0 
0.565863 0.288118 0.0 
0 0 0.0 
0.99928 -0.000899467 0.0 
0.472001 -0.0839722 0.0 
0.128433 -0.00189278 0.0 
0.395689 0.0497919 0.0 
0.46019 -0.0431198 0.0 
1 0 0.0 
0.237454 0.00846816 0.0 
0.759138 0.372654 0.0 
0 0 0.0 
0.963366 -0.0108919 0.0 
0 0 0.0 
0 0 0.0 
1.00936 0 0.0 
0.748809 0.277402 0.0 
0 0 0.0 
1.00618 -0.0020984 0.0 
1.00785 0.00052887 0.0 
0.207711 -0.145744 0.0 
0.15037 0.0178286 0.0 
0.00817441 0.000440504 0.0 
1.00744 0 0.0 
1.00854 -0.000115435 0.0 
0.78902 0.319089 0.0 
0.224046 -0.00235623 0.0 
1.00109 -0.00125592 0.0 
1.00037 0.00469685 0.0 
0.490205 -0.0494265 0.0 
0.769109 0.3651 0.0 
0.747173 0.0635945 0.0 
0.578147 -0.0618608 0.0 
1.00087 0.00237457 0.0 
0.863437 0.354398 0.0 
0.489249 -0.168292 0.0 
0.814976 0.356589 0.0 
0.292896 0.00228219 0.0 
0.00628309 0.000453399 0.0 
0.943653 -0.33441 0.0 
0.174037 -0.00653126 0.0 
0.74554 -0.0902965 0.0 
0.805475 -0.0813466 0.0 
0.278275 0.0239773 0.0 
0.140105 -0.0186812 0.0 
0.000584378 7.76384e-06 0.0 
0.327027 0.0457918 0.0 
1.04989 0.102823 0.0 
0 0 0.0 
0.959811 0.091408 0.0 
1.00001 -0.00011136 0.0 
1 0.000249288 0.0 
0.0777259 -0.0206459 0.0 
0.12679 -0.0139102 0.0 
0.0458869 -0.00976678 0.0 
0.412144 -0.00440961 0.0 
0.809789 0.127261 0.0 
1.00693 -0.00341126 0.0 
0.0134213 -0.00604809 0.0 
0 0 0.0 
0.453609 -0.0475419 0.0 
0.838603 -0.022292 0.0 
0.405672 -0.00270269 0.0 
0.00927133 0.000193084 0.0 
0.784647 0.026139 0.0 
0.780177 0.136545 0.0 
0.000154349 -1.18115e-05 0.0 
0.000137047 8.59087e-06 0.0 
1.01071 0.00160678 0.0 
0.188813 0.0400932 0.0 
0.799611 0.0734162 0.0 
1.00451 0 0.0 
1.0077 -0.000377466 0.0 
0.695679 -0.448819 0.0 
0.767705 0.0876767 0.0 
0 0 0.0 
0.00721521 0.000507735 0.0 
0.000268783 -2.05605e-05 0.0 
1.00749 -0.0087334 0.0 
0.269841 -0.0247306 0.0 
0.77154 -0.290063 0.0 
0.810212 -0.182285 0.0 
2.57033e-79 8.98561e-81 0.0 
1.00711 -0.000275215 0.0 
1.00687 -1.77931e-188 0.0 
1.47398e-10 -1.312e-11 0.0 
0.171779 0.0127339 0.0 
0.93314 0.0462797 0.0 
6.03482e-23 1.1871e-23 0.0 
0.859941 -0.143301 0.0 
1.0009 -0.00364752 0.0 
3.46726e-07 -1.69321e-08 0.0 
0.59125 0.0810597 0.0 
0.0429547 -0.0166953 0.0 
1.01266 -0.00230054 0.0 
2.00821e-09 -1.16935e-10 0.0 
0.325039 -0.0212704 0.0 
0.793832 0.10094 0.0 
0.000994229 -0.000171869 0.0 
0.230578 0.00960989 0.0 
1.00029 -0.000606548 0.0 
0 0 0.0 
0.228891 0.0173838 0.0 
8.39918e-06 -1.50524e-06 0.0 
0.085411 -0.00857915 0.0 
0.86206 0.258394 0.0 
0 0 0.0 
1.08424 -0.0356044 0.0 
0.0229342 0.00406512 0.0 
1.00368 0.00676581 0.0 
0.130797 0.0206581 0.0 
0.0330522 -0.0117996 0.0 
0 0 0.0 
0.00944577 -0.00459968 0.0 
0.89248 -0.300296 0.0 
0.201228 0.0340121 0.0 
0.96617 0.305402 0.0 
1.03379 -0.0533902 0.0 
0.000125135 -3.41083e-06 0.0 
0 0 0.0 
1.01545 0.00208789 0.0 
0.0139739 -0.000847755 0.0 
1.00847 0.00301665 0.0 
2.32449e-11 -3.00559e-12 0.0 
0 0 0.0 
1.00986 0.0122914 0.0 
2.83582e-16 -3.76365e-17 0.0 
0 0 0.0 
0.991157 0.00374772 0.0 
0.438641 -0.0102147 0.0 
1.05948 0.219283 0.0 
1.00046 0.00516199 0.0 
1.01866 -0.301334 0.0 
0.313512 -0.0135661 0.0 
0.940958 -0.100658 0.0 
0.995688 -0.00356502 0.0 
0 0 0.0 
1.90374e-39 -2.32639e-40 0.0 
1.01201 -0.293956 0.0 
1.00757 0.00076031 0.0 
0.324437 0.168041 0.0 
0.0198317 -0.00646657 0.0 
0.3169 0.0753909 0.0 
0.280316 -0.0294535 0.0 
0.0732828 -0.000252898 0.0 
1.02212 0.143288 0.0 
0.999514 -0.0002394 0.0 
1.00142 0.0129213 0.0 
2.50542e-103 1.40112e-104 0.0 
0.907875 0.165842 0.0 
0.870628 0.269949 0.0 
0 0 0.0 
5.72586e-40 6.53729e-40 0.0 
6.93832e-07 3.85985e-08 0.0 
0.00827866 0.000492642 0.0 
1.00624 -0.000953366 0.0 
1.00907 0.255497 0.0 
0.72601 -0.065837 0.0 
0.997884 0.00291013 0.0 
1.00947 -0.00126926 0.0 
1.0126 0.00810137 0.0 
1.0069 -0.00169471 0.0 
3.00556e-173 -1.1827e-173 0.0 
1.38037e-27 -1.46745e-28 0.0 
0.607346 -0.464603 0.0 
1.1216 0.117412 0.0 
0.902451 -0.0746664 0.0 
0.727274 0.191461 0.0 
0.966613 -0.16787 0.0 
0.678375 0.199452 0.0 
0.44572 -0.0380894 0.0 
6.19643e-72 2.53685e-72 0.0 
0.258606 -0.0472586 0.0 
5.95521e-06 8.9332e-10 0.0 
0 0 0.0 
1.00853 -0.00091045 0.0 
1.03639 -0.272761 0.0 
0.00728899 0.000436369 0.0 
0.0136313 -0.000793793 0.0 
1.00753 0 0.0 
1.00099 -0.00487989 0.0 
0.0360893 -0.0153587 0.0 
0.188153 0.00854672 0.0 
0.855236 -0.118316 0.0 
0.0104024 0.000738644 0.0 
0.0378542 0.00389304 0.0 
0.608566 0.340955 0.0 
0.590072 -0.0724024 0.0 
1.00835 0.002183 0.0 
0.65285 -0.0753267 0.0 
0.0773964 -0.0100077 0.0 
5.29034e-05 -4.46019e-06 0.0 
0.339214 -0.0561311 0.0 
1.009 -0.0023109 0.0 
0.0305641 -0.0318147 0.0 
0.995676 0.000746742 0.0 
0.444497 0.000723119 0.0 
0.000886815 4.69367e-05 0.0 
0 0 0.0 
1.01243 0.001501 0.0 
0.0163291 -0.000502968 0.0 
0.454241 -0.346672 0.0 
0 0 0.0 
0 0 0.0 
0.0108927 0.000660637 0.0 
0 0 0.0 
1.00289 0 0.0 
1.09232 -0.100221 0.0 
0.942815 -0.360088 0.0 
0 0 0.0 
0 0 0.0 
1.00987 -0.00373941 0.0 
0.0484778 -0.00348535 0.0 
0 0 0.0 
0 0 0.0 
0.957278 0.0725197 0.0 
0.298489 0.0167057 0.0 
1.00783 -0.00340429 0.0 
1.00933 -0.00259465 0.0 
0.574989 0.222962 0.0 
0.65076 0.277204 0.0 
0.0094521 0.000517764 0.0 
0.968906 0.16942 0.0 
0.92059 -0.30492 0.0 
1.00003 0.000515883 0.0 
0.999895 -0.000126172 0.0 
0.00815666 0.000711082 0.0 
1.00876 0.00164595 0.0 
0.951723 0.284137 0.0 
3.87689e-166 7.8237e-167 0.0 
0.117813 -0.0215222 0.0 
0.818928 -0.244835 0.0 
0.0339192 -0.000867323 0.0 
0.161194 0.168349 0.0 
0 0 0.0 
1.00034 -0.00111484 0.0 
0.960368 0.0154581 0.0 
0.00515593 -0.000228384 0.0 
0.0330878 -0.0150507 0.0 
1.01727 -0.111183 0.0 
0.0930179 -0.00884519 0.0 
0.801404 -0.352299 0.0 
0.681612 0.00947711 0.0 
0.838739 0.0155898 0.0 
0 0 0.0 
0.94564 -0.00957833 0.0 
0 0 0.0 
0.90552 0.332253 0.0 
1.00348 -0.0451314 0.0 
0.645488 -0.00887172 0.0 
9.83253e-76 -7.22732e-77 0.0 
1.00574 0.000506149 0.0 
0.0457767 -0.000384242 0.0 
1.00578 0.153161 0.0 
1.41907e-28 -6.73926e-30 0.0 
0.0240775 0.000491681 0.0 
0.743413 -0.430355 0.0 
0.734429 -0.0114022 0.0 
0.242048 -0.00792844 0.0 
0.00478591 0.000481285 0.0 
0 0 0.0 
0.977159 0.293537 0.0 
1.00784 0.000240184 0.0 
0.761295 -0.288769 0.0 
1.00051 0.000587836 0.0 
1.00795 0.000447127 0.0 
0.682215 -0.107538 0.0 
0.152844 0.0145057 0.0 
1.00991 0.00216201 0.0 
0 0 0.0 
0.00199847 -0.000103636 0.0 
1.00829 0.000245487 0.0 
0.271434 -0.0134256 0.0 
0.560863 -0.296888 0.0 
0.000197399 -1.5618e-05 0.0 
0 0 0.0 
0.235835 -0.0203008 0.0 
0.969068 -0.342013 0.0 
5.70992e-43 4.78854e-45 0.0 
1.09392 0.0895511 0.0 
0.843912 -0.260472 0.0 
0.872687 -0.0451021 0.0 
0.634729 -0.135923 0.0 
1.00518 0.00515724 0.0 
0.255344 -0.130012 0.0 
0.849335 0.332051 0.0 
0.728098 -0.235402 0.0 
0.00210396 -0.000350013 0.0 
0 0 0.0 
1.00815 0.00229849 0.0 
0.910652 0.337756 0.0 
0.999434 -0.00137745 0.0 
0.0224885 -0.000757227 0.0 
1.00859 0.000125996 0.0 
0 0 0.0 
0.561168 -0.207318 0.0 
0.0596855 -0.0182465 0.0 
0.0114375 -0.00789245 0.0 
0.95265 0.0434162 0.0 
0.805697 0.165246 0.0 
1.01144 -0.00198319 0.0 
0.843069 0.346235 0.0 
1.00129 0.0031545 0.0 
0.0101816 0.00102535 0.0 
0.840893 0.322972 0.0 
0.845939 0.297169 0.0 
8.18249e-89 1.077e-89 0.0 
0.534658 -0.310716 0.0 
1.06259 0.0634289 0.0 
1.00001 -0.000529725 0.0 
0.933861 0.0113632 0.0 
0.880656 -0.0711995 0.0 
1.572e-35 -1.19395e-36 0.0 
1.12611 0.107234 0.0 
0.616211 -0.116291 0.0 
1.00025 0 0.0 
0.000675946 2.57766e-05 0.0 
0.848669 0.0513041 0.0 
0.00105404 -0.000107654 0.0 
0.564256 0.0555539 0.0 
0 0 0.0 
0.571744 -0.0239285 0.0 
1.00851 0.000315179 0.0 
0.165811 -0.252224 0.0 
1.0091 0.00011304 0.0 
0.00657035 0.000724036 0.0 
0.0513761 -0.00591435 0.0 
0 0 0.0 