<VTKFile type="UnstructuredGrid" version="0.1" byte_order="LittleEndian">
  <UnstructuredGrid>
    <Piece NumberOfPoints="12527" NumberOfCells="24898">
      <Points>
        <DataArray type = "Float64" NumberOfComponents="3" format="ascii">
0 0 0.0 
14 0 0.0 
14 8 0.0 
0 8 0.0 
4.38439 3.94377 0.0 
12.8057 1.94595 0.0 
0.483697 5.24337 0.0 
4.58885 4.05661 0.0 
4.22181 4.06276 0.0 
4.0547 3.96977 0.0 
4.07268 3.96842 0.0 
4.48301 4.01274 0.0 
4.08596 3.93674 0.0 
4.91996 3.99436 0.0 
4.4023 3.95598 0.0 
8.16322 6.52926 0.0 
4.05639 3.9061 0.0 
4.05477 4.02613 0.0 
14 2.14346 0.0 
8.29677 5.77683 0.0 
4.0374 4.03146 0.0 
4.51297 3.97541 0.0 
4.00922 3.99881 0.0 
4.02803 4.04844 0.0 
4.01759 3.99821 0.0 
4.01927 3.99345 0.0 
4.00786 3.9903 0.0 
4.48443 4.11102 0.0 
4.84218 4.09374 0.0 
4.08476 4.08 0.0 
3.98196 3.98783 0.0 
5.00749 4.02107 0.0 
4.36023 4.05917 0.0 
4.22084 4.06398 0.0 
4.03416 4.05264 0.0 
4.12387 3.9193 0.0 
5.00166 3.98677 0.0 
4.53325 4.06155 0.0 
3.99735 4.00608 0.0 
4.01399 4.01767 0.0 
4.13667 4.04945 0.0 
10.6674 7.61133 0.0 
4.10494 4.05038 0.0 
5.7418 4.11781 0.0 
3.99967 4.0114 0.0 
4.79206 4.0553 0.0 
4.62278 3.95949 0.0 
4.0976 3.96955 0.0 
4.61047 3.94703 0.0 
14 6.11123 0.0 
4.08869 3.96253 0.0 
3.96293 3.99513 0.0 
4.03268 4.02147 0.0 
4.01027 3.99982 0.0 
4.19261 4.06343 0.0 
3.99922 3.99464 0.0 
3.98204 3.97395 0.0 
10.4005 4.02417 0.0 
4.23898 3.96769 0.0 
14 5.21618 0.0 
8.55881 8 0.0 
4.28025 3.72374 0.0 
4.98277 3.98029 0.0 
4.79085 4.03468 0.0 
4.44235 3.97227 0.0 
4.01308 4.00992 0.0 
4.38183 3.95813 0.0 
4.11402 3.95877 0.0 
4.27441 4.05318 0.0 
4.23725 3.95116 0.0 
5.00025 4.00682 0.0 
5.00128 3.99352 0.0 
4.38304 3.97097 0.0 
4.57689 4.03051 0.0 
4.01577 3.95866 0.0 
5.04845 4.04311 0.0 
4.46922 3.87899 0.0 
4.55541 3.91424 0.0 
4.21651 4.06396 0.0 
4.0846 4.01342 0.0 
4.17447 4.07538 0.0 
5.0055 3.9981 0.0 
6.54836 4.20004 0.0 
4.00356 4.03076 0.0 
10.1833 0.248119 0.0 
4.02875 4.04115 0.0 
5.67324 3.89005 0.0 
4.81299 4.03141 0.0 
3.7391 1.31631 0.0 
1.26284 5.53443 0.0 
10.0516 5.61716 0.0 
4.07343 4.06872 0.0 
5.00666 4.00648 0.0 
3.91267 2.38613 0.0 
5.1819 4.12653 0.0 
13.5361 3.50022 0.0 
4.18143 4.0524 0.0 
4.12124 3.98374 0.0 
5.09496 4.09434 0.0 
4.15544 3.92346 0.0 
4.80821 4.0321 0.0 
4.02606 4.03063 0.0 
4.81063 3.99031 0.0 
4.02244 4.02798 0.0 
4.05017 4.03163 0.0 
0 1.4212 0.0 
5.0905 2.15481 0.0 
3.99804 4.00956 0.0 
5.01331 3.98969 0.0 
4.16735 3.94889 0.0 
6.27489 0.239279 0.0 
4.12754 3.92728 0.0 
13.4873 0.257635 0.0 
4.79296 3.98918 0.0 
3.9947 4.00336 0.0 
4.01232 4.00663 0.0 
4.01113 4.01647 0.0 
4.99113 3.9985 0.0 
11.3536 7.26168 0.0 
3.99622 3.95961 0.0 
3.99252 4.00665 0.0 
4.00947 4.02943 0.0 
4.04457 4.03443 0.0 
4.20611 4.06939 0.0 
4.07627 3.96096 0.0 
4.24294 4.04149 0.0 
4.05784 3.98854 0.0 
3.84288 3.97339 0.0 
4.4292 3.97347 0.0 
4.10081 3.94382 0.0 
4.98235 4.01343 0.0 
4.02495 4.02882 0.0 
5.00368 4.02219 0.0 
10.7396 5.64099 0.0 
3.8012 4.10885 0.0 
4.17928 4.0787 0.0 
5.03699 4.00707 0.0 
4.03555 4.04122 0.0 
3.9818 4.03131 0.0 
3.96476 4.03852 0.0 
4.02218 4.02155 0.0 
3.97233 4.04194 0.0 
4.02184 3.98233 0.0 
4.33623 4.0837 0.0 
4.00621 4.04562 0.0 
1.12644 3.34247 0.0 
4.04637 4.0287 0.0 
4.05624 4.00717 0.0 
4.02748 3.99765 0.0 
10.1848 6.24919 0.0 
4.58672 3.9792 0.0 
4.53431 3.97613 0.0 
11.717 4.54424 0.0 
4.44103 4.10325 0.0 
7.59582 1.18535 0.0 
5.26504 3.98108 0.0 
13.2653 2.91651 0.0 
4.00756 4.02287 0.0 
4.05142 4.01968 0.0 
4.23103 3.92099 0.0 
4.17857 3.91238 0.0 
4.00227 4.00923 0.0 
4.02798 4.01078 0.0 
4.99095 4.00346 0.0 
4.45404 3.97303 0.0 
4.13852 3.96261 0.0 
4.10608 4.02928 0.0 
4.50985 7.40044 0.0 
5.00555 4.00537 0.0 
4.15942 4.03647 0.0 
4.71375 3.95356 0.0 
5.05919 4.01855 0.0 
2.15923 7.15628 0.0 
4.9943 3.99704 0.0 
4.37166 3.97075 0.0 
7.06118 4.18359 0.0 
3.88813 4.04093 0.0 
7.18887 6.80823 0.0 
1.24078 0.550265 0.0 
9.10545 7.45594 0.0 
2.38032 0.204862 0.0 
4.01517 4.03055 0.0 
3.99882 3.99972 0.0 
4.12889 4.06214 0.0 
3.99908 3.98836 0.0 
4.04021 3.98137 0.0 
3.99441 4.00023 0.0 
4.12076 4.01226 0.0 
4.1938 4.04426 0.0 
4.21507 3.9482 0.0 
2.54851 4.35956 0.0 
4.97222 4.02124 0.0 
4.00359 4.03909 0.0 
4.94557 3.99546 0.0 
4.04056 3.97585 0.0 
4.47962 4.06463 0.0 
11.9473 3.59927 0.0 
5.1327 4.04445 0.0 
4.0378 4.00667 0.0 
4.02839 3.85949 0.0 
4.10016 3.95849 0.0 
5.17999 4.20915 0.0 
9.48626 1.06994 0.0 
3.9901 3.98452 0.0 
4.97439 3.96659 0.0 
3.62193 3.35812 0.0 
4.00223 3.92739 0.0 
4.73285 4.04202 0.0 
1.55399 5.07439 0.0 
4.12593 4.30859 0.0 
3.9887 3.90005 0.0 
4.67895 4.01774 0.0 
3.99899 4.01393 0.0 
4.0686 3.79132 0.0 
4.55137 4.07682 0.0 
13.2253 0 0.0 
4.09476 4.08011 0.0 
5.6936 4.04652 0.0 
9.50935 4.48832 0.0 
4.17059 3.9671 0.0 
5.08198 4.04957 0.0 
5.02947 4.00625 0.0 
5.31443 2.54646 0.0 
5.03464 3.99029 0.0 
5.72168 3.97443 0.0 
4.08711 3.98632 0.0 
3.96447 3.92683 0.0 
4.32434 4.09206 0.0 
3.99608 4.01533 0.0 
3.98048 4.05294 0.0 
4.98748 4.00399 0.0 
4.13386 4.04638 0.0 
3.98816 4.01224 0.0 
4.49575 4.04499 0.0 
0.848755 1.28674 0.0 
5.52864 3.88875 0.0 
3.99752 4.02893 0.0 
4.01884 3.99521 0.0 
4.50982 3.96365 0.0 
3.98628 3.99582 0.0 
5.00771 4.00059 0.0 
4.01754 3.97341 0.0 
4.1668 4.06048 0.0 
6.11096 3.94188 0.0 
4.09576 3.96998 0.0 
10.4898 1.15433 0.0 
9.55669 5.91713 0.0 
3.26832 4.20049 0.0 
3.99962 4.00016 0.0 
4.3171 4.12404 0.0 
4.02455 3.88899 0.0 
3.93549 3.94275 0.0 
4.77225 3.96575 0.0 
4.25624 3.96767 0.0 
5.10311 4.0306 0.0 
3.91624 4.7504 0.0 
4.09122 3.91786 0.0 
4.58352 4.18397 0.0 
4.32775 4.10155 0.0 
5.57889 4.10824 0.0 
4.18405 4.07138 0.0 
5.12888 3.48258 0.0 
4.20604 4.06613 0.0 
4.50114 3.96716 0.0 
4.13742 3.96772 0.0 
4.59639 4.06315 0.0 
4.76936 3.97834 0.0 
3.9961 4.02386 0.0 
3.9197 3.99687 0.0 
4.71393 3.98597 0.0 
5.18793 4.05304 0.0 
4.32783 4.08889 0.0 
3.98111 4.00805 0.0 
4.01922 3.98146 0.0 
3.99352 3.97666 0.0 
0.747562 5.69493 0.0 
3.99686 4.00472 0.0 
4.6703 4.12294 0.0 
4.93336 3.99567 0.0 
8.28094 0.596167 0.0 
3.98586 3.96653 0.0 
4.01574 3.99897 0.0 
11.3109 3.9311 0.0 
4.1223 3.969 0.0 
4.3222 4.07411 0.0 
5.00397 3.99911 0.0 
4.02402 4.04636 0.0 
4.04912 3.97682 0.0 
3.99876 3.96428 0.0 
4.06133 4.06985 0.0 
5.04267 4.00787 0.0 
3.99417 4.04189 0.0 
7.6181 7.09785 0.0 
4.71441 7.15979 0.0 
3.99997 3.99241 0.0 
4.41092 4.08744 0.0 
4.83329 3.99112 0.0 
3.98918 4.03714 0.0 
6.02554 0.627646 0.0 
4.01059 4.0357 0.0 
4.0488 4.03914 0.0 
4.27012 4.05517 0.0 
4.38807 3.98785 0.0 
4.00056 4.04248 0.0 
4.12652 4.08916 0.0 
2.48135 1.40934 0.0 
3.9896 4.00463 0.0 
0 1.15025 0.0 
3.98613 3.98439 0.0 
4.01707 3.9715 0.0 
4.00273 4.04763 0.0 
4.02428 4.00868 0.0 
4.01387 4.0056 0.0 
4.11408 3.99567 0.0 
4.37976 4.07528 0.0 
4.98926 3.99828 0.0 
4.99702 4.01381 0.0 
3.98643 3.99986 0.0 
4.56409 3.94817 0.0 
4.39901 4.171 0.0 
3.99581 3.98523 0.0 
4.02035 4.05208 0.0 
4.90414 4.03646 0.0 
3.98481 4.00073 0.0 
3.97761 4.0047 0.0 
8.39153 6.28241 0.0 
4.85929 4.02406 0.0 
4.11077 4.06077 0.0 
3.98558 4.00796 0.0 
4.09004 3.97114 0.0 
3.99309 4.00997 0.0 
4.01881 3.97459 0.0 
4.99431 4.00162 0.0 
4.47663 4.03023 0.0 
4.36167 3.97064 0.0 
4.99939 3.99739 0.0 
9.04276 5.96039 0.0 
4.07076 4.03121 0.0 
3.99742 4.04784 0.0 
5.00018 3.98426 0.0 
8.52847 7.37257 0.0 
5.01225 4.00853 0.0 
4.27037 4.11663 0.0 
4.83657 4.02944 0.0 
5.51379 7.4427 0.0 
3.9863 3.99851 0.0 
4.02241 4.04141 0.0 
3.9487 4.03134 0.0 
4.02972 4.05235 0.0 
4.11002 3.98431 0.0 
4.01777 4.04818 0.0 
3.98294 3.96111 0.0 
5.02611 4.00685 0.0 
4.0266 3.96232 0.0 
4.01745 3.9849 0.0 
4.10695 3.94953 0.0 
13.0064 4.46872 0.0 
3.68674 1.80136 0.0 
4.28117 3.92206 0.0 
4.03778 3.99834 0.0 
3.97185 4.00557 0.0 
4.78319 4.01065 0.0 
4.0258 4.07445 0.0 
4.27242 3.94793 0.0 
4.98817 4.01929 0.0 
3.95357 4.06538 0.0 
7.04095 6.9955 0.0 
4.00675 3.9944 0.0 
4.8284 4.02818 0.0 
4.00945 3.98868 0.0 
4.91584 4.01602 0.0 
4.00572 3.98505 0.0 
4.05713 3.95425 0.0 
10.7084 2.37312 0.0 
3.97366 3.97863 0.0 
3.99904 3.97967 0.0 
3.94862 4.04213 0.0 
4.81362 3.98966 0.0 
5.00079 3.98878 0.0 
4.95123 4.00942 0.0 
4.00912 3.99614 0.0 
4.467 3.97303 0.0 
5.01586 4.00977 0.0 
8.94038 7.70202 0.0 
2.33056 5.57699 0.0 
4.99976 3.99841 0.0 
4.02296 4.05915 0.0 
5.00847 4.01115 0.0 
4.99689 3.99053 0.0 
10.8478 4.42307 0.0 
5.00794 4.01633 0.0 
3.97614 4.01755 0.0 
3.47089 5.22944 0.0 
5.46984 4.17168 0.0 
5.00674 4.00102 0.0 
9.15388 3.83278 0.0 
5.04696 4.0697 0.0 
4.05996 4.02956 0.0 
4.0725 4.06182 0.0 
4.03066 4.0465 0.0 
4.08892 3.9567 0.0 
8.98125 6.17249 0.0 
4.00251 4.00671 0.0 
4.77174 3.97521 0.0 
5.0027 3.99265 0.0 
4.18326 4.04509 0.0 
5.22297 3.93304 0.0 
4.37605 3.97057 0.0 
4.03117 3.76284 0.0 
4.88925 4.06774 0.0 
4.14349 3.96691 0.0 
4.09848 4.04814 0.0 
9.4831 3.49413 0.0 
5.02294 4.01619 0.0 
4.51949 4.04441 0.0 
4.03831 3.95277 0.0 
6.33774 3.85123 0.0 
4.28981 4.11298 0.0 
4.3231 4.06066 0.0 
4.89694 3.95464 0.0 
4.00032 4.00368 0.0 
4.01978 4.02634 0.0 
10.0865 7.39187 0.0 
11.9447 8 0.0 
0.845905 6.52685 0.0 
4.22445 4.06792 0.0 
3.99511 3.99395 0.0 
4.17587 3.96683 0.0 
4.14347 4.06123 0.0 
4.60423 4.05515 0.0 
4.89135 4.15887 0.0 
4.99747 4.01842 0.0 
4.35708 4.02398 0.0 
3.97954 4.04522 0.0 
13.4854 0 0.0 
3.98276 4.03655 0.0 
3.97716 3.98171 0.0 
3.98686 4.01708 0.0 
5.00841 3.97606 0.0 
4.99901 3.99971 0.0 
4.10212 4.0244 0.0 
4.04122 3.94064 0.0 
4.096 3.95606 0.0 
3.97909 4.02016 0.0 
3.97814 4.00223 0.0 
4.02897 3.97712 0.0 
4.18919 3.9015 0.0 
4.05469 3.98217 0.0 
4.62598 3.98045 0.0 
7.25887 4.21713 0.0 
4.04912 3.96046 0.0 
4.05419 4.05281 0.0 
13.3503 2.14216 0.0 
4.08108 4.04954 0.0 
4.0703 4.01847 0.0 
4.84003 4.02725 0.0 
4.09111 4.0508 0.0 
7.41891 4.17354 0.0 
4.07896 4.02838 0.0 
3.99483 4.02144 0.0 
8.51121 4.33185 0.0 
12.1347 7.75548 0.0 
4.40894 4.05264 0.0 
5.04506 4.05426 0.0 
4.94257 4.01172 0.0 
4.14989 3.95782 0.0 
5.00702 4.0055 0.0 
5.0336 4.03132 0.0 
0.42318 6.33854 0.0 
4.00773 3.97774 0.0 
4.04425 3.97458 0.0 
3.993 4.0076 0.0 
3.99462 4.03164 0.0 
[...]
<PointData>
  <DataArray type = "Float64" Name="Vitesse" NumberOfComponents="3" format="ascii">
1 0 0.0 
1.00748 0 0.0 
1.00605 0 0.0 
1 0 0.0 
0.441425 0.00464396 0.0 
1.00888 0.000175207 0.0 
0.999967 0.000644143 0.0 
-8.5147e-13 2.71928e-14 0.0 
-1.09997e-173 -2.24283e-174 0.0 
0.335082 -0.0678537 0.0 
0.229688 -0.0356573 0.0 
3.52084e-283 2.30901e-284 0.0 
1.05049 -0.184944 0.0 
0.00824294 0.00047155 0.0 
0.240029 0.00546257 0.0 
1.00895 -0.00114008 0.0 
1.04043 -0.197364 0.0 
0 0 0.0 
1.00874 0.000333625 0.0 
1.0094 -0.00167879 0.0 
0.101802 0.0364638 0.0 
0.00914033 0.000103299 0.0 
0 0 0.0 
0.836998 0.360543 0.0 
5.81081e-264 -9.42412e-264 0.0 
0 0 0.0 
1.19524e-32 -5.89626e-33 0.0 
0.754325 -0.00392717 0.0 
0.563767 -0.0375406 0.0 
1.01095 0.270854 0.0 
0.590599 -0.228335 0.0 
0.0595889 -0.0182593 0.0 
0 0 0.0 
-1.07833e-20 -9.57947e-22 0.0 
0.869596 0.34895 0.0 
1.08872 -0.14286 0.0 
0.126102 0.0174088 0.0 
0.0064587 9.42918e-05 0.0 
0.126324 0.0782263 0.0 
-2.66126e-101 -9.90481e-102 0.0 
-1.49141e-69 -2.77644e-70 0.0 
1.00701 -0.000140566 0.0 
0.0793016 0.0148228 0.0 
0.849354 -0.0208057 0.0 
0.222547 0.221497 0.0 
0.142609 -0.0144881 0.0 
0.246939 0.0090075 0.0 
0.0434439 -0.00204208 0.0 
0.400026 0.0118198 0.0 
1.00747 -0.000453029 0.0 
0.387036 -0.0452631 0.0 
0.671133 -0.0826055 0.0 
0 0 0.0 
8.01943e-228 8.96997e-228 0.0 
0.0676123 0.00552395 0.0 
0.19297 -0.294114 0.0 
0.716505 -0.267448 0.0 
0.785563 -0.000437003 0.0 
0.000278638 1.97424e-05 0.0 
1.00708 -0.0014073 0.0 
1.00797 0 0.0 
1.05998 -0.0513418 0.0 
0.175471 0.0124696 0.0 
0.00259495 -0.000260664 0.0 
0.0152915 0.0013331 0.0 
4.73799e-223 2.46838e-223 0.0 
0.202055 0.00458787 0.0 
0.401308 -0.0362702 0.0 
0 0 0.0 
0.365822 -0.00492457 0.0 
0.0190868 -0.0106043 0.0 
0.0651632 0.0141034 0.0 
0.00690151 0.000747078 0.0 
-5.7661e-266 -2.42545e-268 0.0 
0.944217 -0.359706 0.0 
0.197479 -0.0263748 0.0 
1.04587 -0.0139293 0.0 
0.798741 0.00778691 0.0 
5.61828e-10 3.08126e-11 0.0 
1e-307 1e-307 0.0 
0.564031 0.0811511 0.0 
0.0341736 0.00767762 0.0 
0.99499 -0.007606 0.0 
0.638034 0.359472 0.0 
1.00805 4.10014e-05 0.0 
0.733612 0.335759 0.0 
0.887445 0.016226 0.0 
0.00191005 -0.000158381 0.0 
1.00574 -0.00366566 0.0 
0.999946 0.00202644 0.0 
1.00894 -0.000796802 0.0 
0.951015 0.279828 0.0 
0.0233835 -0.0109947 0.0 
1.00802 -0.00991945 0.0 
0.871683 -0.0444905 0.0 
1.01253 -0.000399565 0.0 
8.45995e-216 1.14143e-216 0.0 
0 0 0.0 
0.647608 -0.0460863 0.0 
1.03691 -0.103651 0.0 
0.00197854 -0.000192349 0.0 
0.38311 0.198734 0.0 
0.000203112 2.153e-05 0.0 
0.333224 0.177409 0.0 
-1.65183e-23 -4.45018e-24 0.0 
1 0 0.0 
1.01305 -0.00284449 0.0 
0.198168 0.18186 0.0 
0.106689 0.018864 0.0 
0.53534 -0.0309561 0.0 
1.0088 -5.63394e-05 0.0 
1.04943 -0.130346 0.0 
1.00761 3.57398e-05 0.0 
0 0 0.0 
0.185817 -0.0404891 0.0 
1.84583e-228 9.61631e-229 0.0 
2.63012e-115 9.79099e-116 0.0 
0.000714551 8.66129e-05 0.0 
1.00695 -0.000208712 0.0 
0.842282 -0.319989 0.0 
0.283229 0.0468322 0.0 
0.61783 0.370455 0.0 
0.120145 0.0433488 0.0 
0.223459 0.0206765 0.0 
0.547024 -0.086614 0.0 
0 0 0.0 
0 0 0.0 
0.887552 -0.0261349 0.0 
1.83939e-27 1.90297e-29 0.0 
0.914761 -0.130897 0.0 
0.0229418 -0.00449881 0.0 
0.307503 0.165591 0.0 
0.0629424 -0.017663 0.0 
1.0087 -0.00063089 0.0 
0.920896 0.0364666 0.0 
0.639067 0.0915781 0.0 
0.0609582 -0.00159617 0.0 
0.662623 0.278754 0.0 
0.64642 0.181896 0.0 
0.72378 0.121264 0.0 
-5.07582e-86 -1.80583e-86 0.0 
0.721297 0.15596 0.0 
0.0776507 -0.0258619 0.0 
0.348974 0.00976573 0.0 
0.761476 0.327709 0.0 
0.999376 -0.000583173 0.0 
-2.19464e-29 -7.3786e-30 0.0 
0 0 0.0 
1e-307 1e-307 0.0 
1.00813 -0.000662599 0.0 
0.000715842 3.00818e-05 0.0 
0.0107217 0.000250928 0.0 
1.01169 0.00015102 0.0 
0.656225 0.000873362 0.0 
1.0091 0.000363905 0.0 
0.31448 0.0152156 0.0 
1.00905 0.000213357 0.0 
0.472447 0.330747 0.0 
-5.04914e-300 -1.57292e-300 0.0 
0.946349 -0.0512671 0.0 
1.07371 -0.0952422 0.0 
0.0573659 0.0717403 0.0 
0 0 0.0 
0.00229159 -0.00056062 0.0 
0.0100658 -3.73374e-05 0.0 
0.19165 -0.0102342 0.0 
0 0 0.0 
1.00854 0.00128985 0.0 
0.021059 -0.0102563 0.0 
0 0 0.0 
0.343689 0.012677 0.0 
0.0873141 -0.00930362 0.0 
1.00202 0.00172818 0.0 
0.0206289 0.00130864 0.0 
0.00496732 0.000826336 0.0 
0.974679 -0.00495252 0.0 
0.852245 0.0290427 0.0 
1.00971 -0.00101087 0.0 
1.0005 -0.000464489 0.0 
1.00777 -0.000314537 0.0 
1.00202 -0.000373266 0.0 
0.600633 0.339466 0.0 
0.0494164 -0.116993 0.0 
0.394539 0.0722249 0.0 
0.479409 -0.445786 0.0 
2.21103e-128 -2.71283e-129 0.0 
0.208897 -0.157376 0.0 
1.127e-305 7.23523e-307 0.0 
0 0 0.0 
0.461088 -0.0127654 0.0 
0.994155 0.00401666 0.0 
0.0441668 -0.00694832 0.0 
0.713339 0.336065 0.0 
0.0100916 0.000308217 0.0 
0.153109 -0.0398872 0.0 
2.75445e-05 -1.63428e-06 0.0 
1.01159 -0.00115817 0.0 
0.256023 -0.0227439 0.0 
1e-307 1e-307 0.0 
1.00082 -0.150311 0.0 
0.480069 -0.0524542 0.0 
1.03009 -0.0382947 0.0 
1.00846 0.000222912 0.0 
0.595074 -0.34672 0.0 
0.302593 0.0183783 0.0 
0.995125 -0.0241799 0.0 
0.935662 -0.235106 0.0 
0.00288142 -0.000362758 0.0 
0.999316 0.00255302 0.0 
1.03701 0.0984423 0.0 
0.942501 -0.17682 0.0 
1e-307 1e-307 0.0 
0.316528 0.266916 0.0 
1.02478 -0.106823 0.0 
0.221246 -0.0119044 0.0 
1.00759 0 0.0 
1.00697 0.256205 0.0 
0.492604 -0.0116561 0.0 
1.00851 -0.00131415 0.0 
0.0194159 0.000298816 0.0 
0.260913 -0.0290305 0.0 
0.0534189 -0.00205634 0.0 
1.0155 -0.00100496 0.0 
0.122622 0.0165774 0.0 
0.493975 0.00790187 0.0 
0 0 0.0 
0.880426 -0.170868 0.0 
0.558068 0.0250744 0.0 
0.386831 0.257113 0.0 
0.759705 0.198726 0.0 
0.00181914 -0.000238751 0.0 
0 0 0.0 
0.433778 0.111023 0.0 
1.87552e-103 -5.53822e-105 0.0 
1.00017 -0.000661334 0.0 
0.894073 0.0197836 0.0 
0.606024 0.313685 0.0 
0 0 0.0 
0.156754 0.00566964 0.0 
0.460725 -0.192157 0.0 
0.0295166 0.00100864 0.0 
0.767702 -0.334374 0.0 
0.0781665 0.00584884 0.0 
0.682165 0.00841942 0.0 
0.0358719 -0.00642361 0.0 
1.00834 0.000172365 0.0 
1.00865 -0.000987063 0.0 
0.981285 0.00748333 0.0 
0.0156082 -0.0608462 0.0 
1.04955 0.0741154 0.0 
0.994617 -0.181171 0.0 
0.849921 -0.119464 0.0 
0.227681 0.00976083 0.0 
0.00820595 0.000326124 0.0 
0.157381 -0.0164335 0.0 
1.01186 0.034788 0.0 
1.0855 -0.18021 0.0 
1.10559 -0.001056 0.0 
0.747329 0.0394106 0.0 
0.80185 -0.0239604 0.0 
0.388507 0.0509997 0.0 
1.0287 0.0077565 0.0 
0.112004 0.00760721 0.0 
0.107238 0.00421607 0.0 
0.0222392 -0.00110468 0.0 
0.0760284 -0.00596541 0.0 
0.0955634 0.00454902 0.0 
0.541387 0.298247 0.0 
0.801096 -0.0303433 0.0 
8.12555e-08 1.11761e-08 0.0 
0.344016 -0.0254138 0.0 
0.480781 0.018906 0.0 
0.503803 0.00958936 0.0 
0.241879 -0.0900565 0.0 
0.709241 -0.378137 0.0 
1.00002 0.00107939 0.0 
0.118602 0.0282154 0.0 
0.845965 -0.0288163 0.0 
0.000709788 5.44371e-05 0.0 
1.00856 0.000167998 0.0 
0.77251 -0.286638 0.0 
1.06406e-256 -1.72572e-256 0.0 
0.832161 0.00170204 0.0 
7.38346e-06 -1.26484e-07 0.0 
0.130346 0.00253105 0.0 
0.0237706 0.00476407 0.0 
0.818234 0.36624 0.0 
8.81797e-104 -1.37779e-104 0.0 
0.832675 -0.353775 0.0 
0.969621 0.303592 0.0 
0.0661386 -0.00169321 0.0 
0.710621 0.270609 0.0 
1.009 -0.000735706 0.0 
1.00932 0.00155592 0.0 
0.276683 -0.347309 0.0 
0.377604 -0.00106053 0.0 
1.65135e-05 1.31529e-06 0.0 
0.675744 0.240972 0.0 
1.00893 -0.000242407 0.0 
0.705954 0.37572 0.0 
0.323023 0.107953 0.0 
0 0 0.0 
-9.12727e-156 -6.04065e-157 0.0 
0.726457 0.308174 0.0 
1.0273 0.216668 0.0 
1.00191 -0.00278788 0.0 
0.345036 -0.0242004 0.0 
1 0 0.0 
0.608441 -0.292204 0.0 
0.829215 -0.362448 0.0 
0.761291 0.305195 0.0 
0 0 0.0 
0 0 0.0 
-8.43152e-200 -6.19974e-201 0.0 
0.137669 -0.000263693 0.0 
0.00364247 0.00059103 0.0 
0.0329512 -0.0117064 0.0 
0.424269 -0.123723 0.0 
0.37814 0.0104472 0.0 
1.1282 0.0491214 0.0 
0.579497 -0.433683 0.0 
0.83886 0.349901 0.0 
0.0806885 -0.00958905 0.0 
0.448543 -0.100394 0.0 
0.540946 -0.0341332 0.0 
1.009 -0.00124597 0.0 
2.45073e-06 -2.87438e-07 0.0 
0.496304 0.105928 0.0 
0.439477 0.0250601 0.0 
2.30419e-06 -9.3509e-08 0.0 
0.318921 0.13326 0.0 
0.700827 -0.295183 0.0 
9.20772e-09 -9.43029e-10 0.0 
1.12245e-286 2.97483e-288 0.0 
3.48129e-06 7.07825e-07 0.0 
0.0259135 0.00659604 0.0 
1.00887 -0.00118872 0.0 
0 0 0.0 
0.749666 0.279024 0.0 
0.148491 0.0172171 0.0 
1.00816 -0.000431162 0.0 
0.0313463 -0.0105612 0.0 
1.04191 0.0989048 0.0 
0.0070184 -0.0010496 0.0 
1.00979 0.000302539 0.0 
0.435505 -0.14735 0.0 
0.76838 0.36742 0.0 
0.746747 0.0633055 0.0 
0.864308 0.354828 0.0 
0 0 0.0 
0.81403 0.357019 0.0 
0.797107 -0.26093 0.0 
0.048688 -0.00342814 0.0 
0.943 -0.334349 0.0 
-8.51786e-35 2.75627e-35 0.0 
0.745174 -0.0902269 0.0 
1.01059 -0.000145571 0.0 
1.00591 -0.00577369 0.0 
0.869098 -0.02817 0.0 
0 0 0.0 
0.595779 -0.0256536 0.0 
-1.46532e-155 1.13931e-156 0.0 
0.903044 0.289728 0.0 
0.408858 -0.00323686 0.0 
0.0458028 -0.00976608 0.0 
0.810304 0.127094 0.0 
1.00964 -0.000800981 0.0 
6.84482e-231 -5.54386e-231 0.0 
-3.50772e-15 3.81934e-16 0.0 
-1.4887e-34 8.83773e-35 0.0 
0.00147933 -0.000244748 0.0 
0.497387 -0.354745 0.0 
0.923541 -0.211235 0.0 
1.0091 0.000307763 0.0 
0.697113 -0.201369 0.0 
0.697392 -0.448738 0.0 
0.767428 0.0874032 0.0 
0.00488447 0.000145039 0.0 
0.107597 0.0159987 0.0 
0.000136683 -1.99795e-05 0.0 
6.60846e-236 -2.55977e-236 0.0 
0.0161916 0.00123266 0.0 
0.0362488 -0.0103453 0.0 
1.00781 -0.000182645 0.0 
1.00044 0.00525033 0.0 
0.0147891 0.00556764 0.0 
0.867358 0.330377 0.0 
0.0314699 -0.0143188 0.0 
0.0893875 0.0110011 0.0 
1.0111 -0.000861288 0.0 
0.0437264 -0.0168422 0.0 
0.590632 0.0804705 0.0 
1.00423 0.0155864 0.0 
0.985225 -0.0293828 0.0 
0.0257983 -0.000515534 0.0 
0.943686 -0.000370859 0.0 
0.415876 -0.0387945 0.0 
0 0 0.0 
0.854274 0.255146 0.0 
0.814441 0.35206 0.0 
0.618743 -0.0850375 0.0 
1.00872 -0.00108037 0.0 
3.55588e-113 6.82006e-113 0.0 
0.128447 0.0059189 0.0 
0.0737356 0.0157724 0.0 
0 0 0.0 
0.651436 0.0299259 0.0 
0.00682688 0.000190399 0.0 
1.00793 -0.0954271 0.0 
0.316752 -0.0274232 0.0 
0.044681 0.000892459 0.0 
0.0470968 0.0109035 0.0 
1.00806 0.00192397 0.0 
0.0523872 -0.0138868 0.0 
1.11466e-109 -3.29147e-111 0.0 
1.00968 -0.294833 0.0 
0.959457 0.00555991 0.0 
0.981752 0.0798025 0.0 
0 0 0.0 
0.389177 0.0160105 0.0 
0.00615333 0.00539606 0.0 
0.32422 0.168929 0.0 
1.00731 -0.000257552 0.0 
1.00653 0 0.0 
1.0002 0.000977435 0.0 
0.112477 0.0096994 0.0 
0.335122 -0.349135 0.0 
0.0216901 -0.00139635 0.0 
0.245068 0.0374579 0.0 
0.00084334 -6.25626e-05 0.0 
1.01665 -0.0440512 0.0 
0.0471991 -0.0139547 0.0 
7.91968e-292 5.07807e-293 0.0 
0.726903 0.191021 0.0 
1.00756 0 0.0 
0.677614 0.198828 0.0 
0.665559 -0.216034 0.0 
0.50095 0.151903 0.0 
0.226668 0.0234738 0.0 
0 0 0.0 
0 0 0.0 
1.03576 -0.273025 0.0 
0.594994 -0.0742288 0.0 
0.584292 0.114072 0.0 
0.53692 -0.0623851 0.0 
0.303365 -0.100529 0.0 
1.09278 -0.0937594 0.0 
0 0 0.0 
0.00798064 0.000711963 0.0 
0.9952 -0.00425904 0.0 
0.823174 -0.202417 0.0 
0.789474 0.273137 0.0 
1.00874 0.000262065 0.0 
0.333824 0.0890053 0.0 
0 0 0.0 
0.000515472 -4.19056e-05 0.0 
0.264392 0.0637758 0.0 
0.953926 -0.00372948 0.0 
0 0 0.0 
0.507903 0.277191 0.0 
1.00915 -0.00166446 0.0 
1.00655 -6.13412e-05 0.0 
0 0 0.0 
0.28191 -0.0315634 0.0 
0.00139061 -0.00023275 0.0 
0.317063 -0.0162942 0.0 
0.0231358 -0.00955361 0.0 
0.117488 -0.0215502 0.0 
1.00003 0.000515564 0.0 
0.745776 -0.428731 0.0 
0.183062 -0.0315562 0.0 
0.282639 0.0770584 0.0 
0.632196 0.2847 0.0 
0.103892 -0.0544624 0.0 
0.85826 -0.0043567 0.0 
0.000783011 -0.000125423 0.0 
0.00107401 1.49108e-05 0.0 
0.00390506 -0.000493215 0.0 
0.991614 -0.260152 0.0 
1.03874 -0.0125911 0.0 
0.0330684 -0.0151081 0.0 
-3.08645e-196 -2.24777e-197 0.0 
0.802436 -0.352029 0.0 
5.92591e-07 3.15977e-08 0.0 
1.00679 -0.00371398 0.0 
0.00270544 -0.000371275 0.0 
0.109524 0.0296923 0.0 
1.00789 4.50795e-05 0.0 
0 0 0.0 
0.645168 -0.00918552 0.0 
0 0 0.0 
0.000265721 1.54386e-05 0.0 
0.0632059 -0.0131769 0.0 
1.0096 0.000152664 0.0 
0.139741 0.00955714 0.0 
-3.255e-14 -4.18195e-15 0.0 
0.221836 -0.0132279 0.0 
1.00051 0.000591069 0.0 
0.585091 -0.0376214 0.0 
1.01025 0.00134967 0.0 
1.22166e-295 7.87939e-297 0.0 
0.00831168 3.07656e-05 0.0 
0 0 0.0 
0.0133141 -0.00456928 0.0 
1.00005 0.00162658 0.0 
1.00817 -0.000576964 0.0 
0.968494 -0.34161 0.0 
1.009 0.000148988 0.0 
0.898342 0.0828194 0.0 
0.160743 -0.140397 0.0 
0.0508672 0.0818501 0.0 
0.850196 0.330971 0.0 
0.142939 -0.121074 0.0 
0.293439 0.0612589 0.0 
1.00921 0.00018079 0.0 
0.974783 0.174813 0.0 
0.0108974 0.00114029 0.0 
0.561728 -0.207803 0.0 
0.80618 0.165645 0.0 
1.00019 0 0.0 
0.249198 0.238256 0.0 
-9.8523e-32 -5.25326e-33 0.0 
1.01102 -0.0013504 0.0 
0.0255428 -0.00732931 0.0 
1.00001 -0.000531744 0.0 
0.00546994 0.000968091 0.0 
0.812461 -0.223105 0.0 
0.616544 -0.116687 0.0 
0.988354 -0.00581302 0.0 
1.00774 1e-307 0.0 
0.563855 0.0550567 0.0 
0.837821 0.0260216 0.0 
0.0310039 0.0532986 0.0 
0.158702 -0.25235 0.0 
0.0656308 0.0107464 0.0 
1.00127 -0.00179453 0.0 
0.446305 -0.0392331 0.0 
0 0 0.0 
0.0231018 -0.00144641 0.0 
2.49847e-308 1e-307 0.0 
0 0 0.0 
0.655931 0.0088656 0.0 
0.7421 -0.209546 0.0 
0.843777 0.342595 0.0 
0.420011 0.0387032 0.0 
1.62133e-12 2.59402e-13 0.0 
4.36735e-31 -2.68232e-32 0.0 
0.743069 0.302644 0.0 
0.619443 0.0109115 0.0 
0.000215836 -2.43144e-05 0.0 
0.120653 0.029791 0.0 
0.030141 -0.0130778 0.0 
-5.08371e-189 -1.21235e-189 0.0 
0.0761852 0.0155872 0.0 
0.859382 -0.402409 0.0 
0.899283 0.0012563 0.0 
1.00802 6.59515e-05 0.0 
0.906386 0.226175 0.0 
1.00738 0.000639227 0.0 
0.0283735 -0.00871785 0.0 
0.776557 0.0639036 0.0 
0.6783 -0.367319 0.0 
1.00493 0.00113399 0.0 
0.0909671 0.00457523 0.0 
0.593996 -0.143193 0.0 
1e-307 1e-307 0.0 
0.00764879 1.29235e-05 0.0 
0.859427 -0.183269 0.0 
0.676729 0.000781745 0.0 
1.00924 0.000222882 0.0 
1.00055 0.00429463 0.0 
0.0714635 0.00631503 0.0 
0 0 0.0 
0.99995 -0.000485476 0.0 
0.0588187 -0.0477131 0.0 
0.0245546 -0.00364237 0.0 
0.0102569 -0.000931609 0.0 
0.131539 0.00854626 0.0 
0.311923 -0.261932 0.0 
-5.5637e-33 8.42067e-34 0.0 
1.00498 -0.00288041 0.0 
0.155585 0.00936966 0.0 
0.470528 -0.025354 0.0 
0.037061 -0.00825952 0.0 
1.00056 -0.000237609 0.0 
0.979849 0.197389 0.0 
0.0554017 -0.0169957 0.0 
0.759587 0.112782 0.0 
0.00288534 -0.000142144 0.0 
1.00005 0.00266585 0.0 
1.22991e-97 -5.84025e-99 0.0 
0.696181 -0.158753 0.0 
-8.50149e-33 -1.90264e-33 0.0 
0.972083 0.0386078 0.0 
0.0126612 0.000678502 0.0 
0.00706883 0.000641852 0.0 
0.49559 0.236651 0.0 
0.0154796 0.000234288 0.0 
0.576615 -0.00527365 0.0 
0.000102559 9.82636e-06 0.0 
0.884197 -0.0146055 0.0 
0.115085 0.00495462 0.0 
0.257972 0.128805 0.0 
1.01051 0.0075611 0.0 
0.998869 -0.000146243 0.0 
0.568198 0.00581299 0.0 
0.00731588 0.000257986 0.0 
0 0 0.0 
0.0794452 -0.0183621 0.0 
0.072505 0.00879604 0.0 
0.11523 0.141049 0.0 
0.0234075 -0.00446488 0.0 
0.0293444 0.00908374 0.0 
-4.94846e-38 -1.88527e-38 0.0 
6.4374e-12 5.628e-13 0.0 
1.08987 -0.0453845 0.0 
0.00441155 -0.000664205 0.0 
0.61081 -0.0272307 0.0 
1.00976 0.000900542 0.0 
1.00388 0.00268865 0.0 
0.040863 -0.000199141 0.0 
0.614647 0.0335595 0.0 
1.72749e-05 5.67345e-06 0.0 
0.906494 -0.391339 0.0 
1.00774 0.000134758 0.0 
0.838552 -0.33214 0.0 
0.121339 0.0110621 0.0 
0 0 0.0 
-6.47526e-171 -1.3203e-171 0.0 
1.01511 0.00243046 0.0 
0.28339 0.00241641 0.0 
0.784641 -0.277667 0.0 
0.129294 -0.0203999 0.0 
0.924256 -0.280683 0.0 
0.886256 -0.200472 0.0 
0.162217 -0.0577141 0.0 
0.155789 0.0223695 0.0 
0.0100579 -0.000777569 0.0 
0.0058118 0.000584737 0.0 
0 0 0.0 
0.00993852 0.000861328 0.0 
1.81646e-110 6.76231e-111 0.0 
0.0629369 0.0030342 0.0 
1.08773 0.110096 0.0 
0.837225 -0.419517 0.0 
3.30851e-06 7.98498e-07 0.0 
1.00611 -8.5068e-05 0.0 
0.836401 -0.418371 0.0 
1.00626 -0.000152174 0.0 
0.048098 -0.0167582 0.0 
0.0474101 -0.000485839 0.0 
0.555733 -0.0393415 0.0 
0.999953 0.00142887 0.0 
0.999616 -0.000484022 0.0 
0.00466559 0.00040632 0.0 
1.00743 -0.000819181 0.0 
1.08398 -0.0421541 0.0 
1.14199e-10 3.49656e-12 0.0 
0.999985 -0.00059653 0.0 
0.210535 0.096518 0.0 
0.571882 0.0112285 0.0 
0.653581 -0.353157 0.0 
0.130296 -0.0199519 0.0 
0.124098 0.020063 0.0 
0.00523938 0.000403607 0.0 
1.04593 -0.0400461 0.0 
0.999907 -0.000716936 0.0 
-1.14535e-14 1.22002e-15 0.0 
0.910178 -0.0270886 0.0 
1.00011 -0.00153833 0.0 
0 0 0.0 
0.516748 -0.0776911 0.0 
1.00418 0.233867 0.0 
1.118 0.139479 0.0 
1.00425 -0.00414359 0.0 
0.140718 0.00394941 0.0 
0.0415343 -0.0152372 0.0 
0.839504 0.147753 0.0 
0.203873 0.024746 0.0 
0.490564 -0.0100087 0.0 
1.00971 -0.000498007 0.0 
-5.64091e-178 -5.15788e-178 0.0 
1.00875 -0.00162215 0.0 
0.568453 -0.0641672 0.0 
0.122963 0.00371858 0.0 
0.0902339 0.0179189 0.0 
0.842334 0.000582082 0.0 
0.0619031 0.0112858 0.0 
0.741294 0.0342773 0.0 
1.07249 -0.0586938 0.0 
0.63075 -0.261952 0.0 
0.000907457 -0.000154633 0.0 
0.967996 -0.0247156 0.0 
2.5514e-229 -9.88276e-230 0.0 
0.965504 -0.00395405 0.0 
1.00854 0.000245485 0.0 
1.11637 0.097997 0.0 
0.925811 0.00151204 0.0 
0.142326 0.0639362 0.0 
0.252573 0.138892 0.0 
1.00806 0.000147157 0.0 
0.99921 -0.0015647 0.0 
1.00634 -0.000855846 0.0 
0.110005 -0.024275 0.0 
0.0894749 0.00422741 0.0 
3.7434e-209 4.1871e-209 0.0 
0.0966251 0.0158611 0.0 
0.312722 0.269678 0.0 
0.0105808 0.000528899 0.0 
2.00089e-195 3.97066e-196 0.0 
0.00765881 0.000409878 0.0 
0.0802123 -0.0121592 0.0 
0 0 0.0 
1.00907 -0.00130943 0.0 
0.34497 0.0191155 0.0 
1.00818 0.000126759 0.0 
0.700992 -0.0386279 0.0 
0.964861 0.285634 0.0 
2.08082e-07 2.03095e-08 0.0 
1.00707 -0.000277785 0.0 
0 0 0.0 
0.155446 0.0451824 0.0 
0.0940062 -0.0328474 0.0 
0.0573406 0.00969847 0.0 
0.129757 -0.00591401 0.0 
1.00904 -0.00704857 0.0 
0 0 0.0 
0.0159869 -0.000656789 0.0 
0.754937 0.349436 0.0 
0.00183347 -6.52132e-05 0.0 
4.79259e-219 2.49682e-219 0.0 
1.05177 -0.0487354 0.0 
0.951426 -0.0138692 0.0 
0.696495 0.0664213 0.0 
0.999686 -0.00197889 0.0 
0.875608 0.328291 0.0 
0.84849 0.00564465 0.0 
1.00231 0.00490356 0.0 
0.696253 -0.338714 0.0 
0.0128077 -2.6392e-05 0.0 
0.995427 0.00633041 0.0 
1.00678 0.00330602 0.0 
1.00924 -0.000968477 0.0 
1.00838 0.000411323 0.0 
0.403993 -0.243555 0.0 
1.00246 -0.000529824 0.0 
0.00384388 0.000397862 0.0 
0.10992 0.00415778 0.0 
1.00844 0.000220226 0.0 
0.633529 -0.0261229 0.0 
0.00917806 0.00054779 0.0 
0.780497 -0.323183 0.0 
0.755683 0.212693 0.0 
0.0835995 0.0144768 0.0 
0.0109957 -0.00295736 0.0 
1.00001 -0.000180308 0.0 
0.08823 -0.0179721 0.0 
0.286766 -0.0283044 0.0 
9.83577e-228 -3.80985e-228 0.0 
0.160701 0.0926183 0.0 
0.779656 0.243576 0.0 
0.96355 -0.00613844 0.0 
0.767936 -0.417261 0.0 
0.998793 -0.00405236 0.0 
0.0217628 0.00702565 0.0 
1.01033 -0.00264519 0.0 
0.977536 -0.0405539 0.0 
8.49042e-25 2.50817e-26 0.0 
0.305325 0.0849304 0.0 
-1.90153e-253 -7.97006e-256 0.0 
0.984876 0.0347224 0.0 
0.747328 -0.00179828 0.0 
0.238997 0.00288319 0.0 
0 0 0.0 
1.00717 0.000506502 0.0 
0.00756707 -0.000356717 0.0 
1.09893e-41 2.05966e-42 0.0 
0.745223 -0.0450576 0.0 
0.682977 0.366851 0.0 
0.372521 -0.036629 0.0 
0.999996 -0.000174575 0.0 
0 0 0.0 
0.547568 -0.397819 0.0 
0.965451 -0.0027629 0.0 
1.00775 0.000112225 0.0 
1.02253 -0.00383882 0.0 
0 0 0.0 
1 0 0.0 
0.214367 0.00555769 0.0 
0.108348 -0.0199764 0.0 
1.00761 0 0.0 
0.25847 -0.0102444 0.0 
0.80386 -0.439926 0.0 
1.01168 -0.000954172 0.0 
1.00717 -0.000140924 0.0 
0.00346147 -0.000236167 0.0 
1.00763 -0.0315984 0.0 
0.0628293 0.000965269 0.0 
1.66123e-78 1.60396e-79 0.0 
4.03876e-43 1.43052e-43 0.0 
0.0140153 0.000213515 0.0 
0.372237 -0.328472 0.0 
1.00822 0.000204069 0.0 
1.00395 -0.000592905 0.0 
1.01149 -0.00167453 0.0 
0.000178045 4.53451e-05 0.0 
1.00221 0 0.0 
1.0096 -0.00111588 0.0 
1.73483e-05 3.7415e-07 0.0 
0.67406 -0.184031 0.0 
0.00310169 -0.00015169 0.0 
1.01085 0.00157554 0.0 
1.01064 0.000978972 0.0 
0.545788 0.30591 0.0 
0.0324223 -0.000371383 0.0 
1.00979 -0.000426699 0.0 
0.112766 -0.0219881 0.0 
0.0159023 -0.0010625 0.0 
0.845521 0.0364436 0.0 
0.715084 -0.438318 0.0 
0.594966 0.141141 0.0 
0 0 0.0 
0.00952426 -2.9568e-05 0.0 