<VTKFile type="UnstructuredGrid" version="0.1" byte_order="LittleEndian">
  <UnstructuredGrid>
    <Piece NumberOfPoints="12642" NumberOfCells="25123">
      <Points>
        <DataArray type = "Float64" NumberOfComponents="3" format="ascii">
0 0 0.0 
14 0 0.0 
14 8 0.0 
0 8 0.0 
4.16782 4.09801 0.0 
4.97904 4.05504 0.0 
3.80086 4.03948 0.0 
1.66533 2.75114 0.0 
4.55582 4.06 0.0 
4.27592 4.05022 0.0 
4.14543 4.05631 0.0 
4.00472 4.01202 0.0 
4.00192 3.99598 0.0 
12.5949 1.78564 0.0 
12.5897 7.38757 0.0 
4.45627 4.06629 0.0 
1.98587 3.23933 0.0 
4.24463 3.94168 0.0 
4.08492 3.93693 0.0 
4.5309 3.97721 0.0 
4.60901 4.06881 0.0 
4.97365 4.02617 0.0 
4.21198 3.92353 0.0 
4.97069 3.99768 0.0 
4.05477 4.02613 0.0 
4.36723 4.05555 0.0 
4.73224 4.02446 0.0 
4.03928 4.0597 0.0 
8.28818 5.78715 0.0 
4.08311 3.94155 0.0 
4.5375 4.06142 0.0 
4.00922 3.99881 0.0 
4.02803 4.04844 0.0 
4.09813 3.95147 0.0 
4.01927 3.99345 0.0 
4.13137 4.09569 0.0 
4.11094 4.03801 0.0 
4.07698 3.96551 0.0 
4.37665 3.94429 0.0 
3.98196 3.98783 0.0 
5.00749 4.02107 0.0 
4.36023 4.05917 0.0 
4.92733 4.04496 0.0 
4.08924 4.12876 0.0 
4.22616 3.99333 0.0 
4.15281 3.97466 0.0 
4.82486 3.99042 0.0 
4.78434 3.98772 0.0 
4.4122 4.04382 0.0 
5.80127 4.02409 0.0 
4.1592 4.06546 0.0 
3.98795 3.99915 0.0 
4.01647 3.99236 0.0 
3.99216 3.94546 0.0 
4.03396 4.05254 0.0 
4.04071 4.14023 0.0 
4.105 3.9376 0.0 
4.0175 4.04099 0.0 
4.16857 3.99415 0.0 
4.67804 3.98397 0.0 
4.13969 3.94719 0.0 
4.11428 4.48924 0.0 
5.00785 4.00312 0.0 
10.8833 7.73481 0.0 
14 6.11123 0.0 
4.05153 4.02998 0.0 
3.96293 3.99513 0.0 
4.04956 3.95606 0.0 
4.0554 4.03887 0.0 
8.27607 4.17684 0.0 
4.03066 4.08135 0.0 
3.99922 3.99464 0.0 
5.03684 4.01469 0.0 
4.04342 4.02946 0.0 
4.70591 4.01844 0.0 
14 5.21618 0.0 
3.9629 4.03144 0.0 
4.23781 3.98295 0.0 
4.01475 3.97768 0.0 
4.03818 4.0302 0.0 
6.67008 1.11589 0.0 
5.00991 4.10716 0.0 
3.00076 3.7911 0.0 
4.18631 4.04791 0.0 
4.24422 7.49665 0.0 
4.35343 3.94951 0.0 
5.02091 3.98133 0.0 
4.12213 3.94584 0.0 
0.78099 4.20948 0.0 
4.23647 3.95137 0.0 
5.00128 3.99352 0.0 
4.08373 4.05666 0.0 
5.02315 4.00601 0.0 
5.60874 8 0.0 
4.27852 0 0.0 
5.04845 4.04311 0.0 
4.00938 3.99278 0.0 
10.5617 3.5312 0.0 
0 5.87509 0.0 
4.13434 4.07811 0.0 
4.26956 3.96799 0.0 
4.3907 4.09974 0.0 
2.31548 5.92159 0.0 
4.35017 3.94589 0.0 
4.31451 4.05608 0.0 
4.10761 4.0532 0.0 
4.10288 3.94742 0.0 
0 3.21266 0.0 
4.1741 4.07586 0.0 
4.57498 3.95545 0.0 
3.7391 1.31631 0.0 
4.0137 4.01922 0.0 
4.74436 3.89569 0.0 
1.94638 5.92146 0.0 
4.08432 4.05006 0.0 
3.91267 2.38613 0.0 
4.02873 4.0411 0.0 
4.88146 4.04087 0.0 
4.13028 4.05213 0.0 
8.13474 5.19397 0.0 
4.52809 3.97646 0.0 
4.12124 3.98374 0.0 
4.63399 4.0359 0.0 
3.99941 3.94513 0.0 
5.00166 3.98677 0.0 
4.66869 3.98241 0.0 
4.99458 4.03862 0.0 
4.99384 4.00241 0.0 
4.02244 4.02798 0.0 
1.72266 2.31086 0.0 
4.12635 4.07409 0.0 
0 1.4212 0.0 
4.97191 3.99718 0.0 
3.98465 3.9804 0.0 
5.0032 4.00257 0.0 
3.86918 4.02038 0.0 
1.56175 5.17905 0.0 
5.01331 3.98969 0.0 
12.3497 5.11304 0.0 
4.19161 3.91927 0.0 
5.05415 4.0144 0.0 
5.71601 6.21247 0.0 
4.12613 3.92733 0.0 
4.05937 4.03931 0.0 
10.9662 3.80256 0.0 
12.2251 0.657309 0.0 
0 7.00555 0.0 
4.44504 3.96417 0.0 
4.35292 3.96978 0.0 
4.16991 4.04935 0.0 
4.17721 4.06988 0.0 
4.13768 3.96499 0.0 
1.11625 6.94958 0.0 
3.99252 4.00665 0.0 
4.58303 3.97806 0.0 
4.07528 3.47335 0.0 
4.95541 4.10257 0.0 
4.03272 3.9314 0.0 
3.94814 3.94781 0.0 
4.06815 3.93136 0.0 
4.30937 3.89872 0.0 
4.05784 3.98854 0.0 
5.06886 4.12388 0.0 
4.19057 4.05281 0.0 
4.10081 3.94382 0.0 
4.52201 3.96576 0.0 
4.13066 4.03676 0.0 
5.00368 4.02219 0.0 
4.00943 4.02943 0.0 
4.36242 4.07017 0.0 
3.8288 4.23637 0.0 
4.07474 4.03127 0.0 
4.15753 4.10167 0.0 
3.96821 4.02723 0.0 
4.18309 4.12442 0.0 
3.96476 4.03852 0.0 
3.85412 3.99923 0.0 
3.97233 4.04194 0.0 
1.49322 0.560455 0.0 
1.26284 5.53443 0.0 
3.85463 4.06281 0.0 
1.12644 3.34247 0.0 
3.92251 4.00785 0.0 
5.00418 4.00022 0.0 
4.85785 3.94039 0.0 
4.00071 3.98403 0.0 
4.15262 4.06802 0.0 
4.00615 4.04554 0.0 
4.41935 4.0735 0.0 
4.1187 3.93345 0.0 
5.04007 4.02119 0.0 
4.67274 4.04973 0.0 
13.2653 2.91651 0.0 
4.00756 4.02287 0.0 
4.05388 4.01752 0.0 
4.23103 3.92099 0.0 
4.98371 4.01321 0.0 
3.05926 1.41544 0.0 
6.24689 4.08807 0.0 
4.00292 3.99618 0.0 
4.33952 4.0742 0.0 
5.10249 5.33282 0.0 
4.02894 4.02569 0.0 
4.04175 3.99348 0.0 
4.10608 4.02928 0.0 
4.19999 3.96792 0.0 
9.70989 7.75915 0.0 
4.13247 3.99278 0.0 
4.02341 4.03456 0.0 
4.19787 4.07473 0.0 
4.52724 7.41561 0.0 
5.05919 4.01855 0.0 
2.15923 7.15628 0.0 
4.11864 4.05829 0.0 
4.60701 3.95862 0.0 
4.01704 4.0599 0.0 
9.66624 6.70196 0.0 
5.0468 2.13587 0.0 
7.18887 6.80823 0.0 
5.14832 4.1448 0.0 
1.24078 0.550265 0.0 
9.10545 7.45594 0.0 
2.38032 0.204862 0.0 
4.53745 3.9765 0.0 
4.2625 3.98267 0.0 
4.70111 3.98391 0.0 
4.01517 4.03055 0.0 
3.9961 4.01386 0.0 
3.99882 3.99972 0.0 
5.00003 3.99572 0.0 
7.11786 6.27356 0.0 
4.20883 3.93021 0.0 
4.49092 4.06326 0.0 
3.99908 3.98836 0.0 
8.76112 4.31939 0.0 
5.21786 3.97953 0.0 
6.09986 4.79502 0.0 
4.00403 3.99363 0.0 
4.21507 3.9482 0.0 
4.84157 4.09791 0.0 
4.97222 4.02124 0.0 
4.19735 4.0441 0.0 
4.47784 4.03912 0.0 
4.68666 3.98377 0.0 
4.08678 3.96894 0.0 
11.9473 3.59927 0.0 
5.1327 4.04445 0.0 
4.80197 4.05857 0.0 
5.00355 3.99859 0.0 
5.04088 3.99921 0.0 
4.2408 4.0646 0.0 
4.50893 4.06337 0.0 
4.07749 3.92631 0.0 
4.39829 3.95567 0.0 
3.9901 3.98452 0.0 
4.51 3.97632 0.0 
4.88175 3.99379 0.0 
4.47222 3.97495 0.0 
11.3093 5.31997 0.0 
4.99983 4.00536 0.0 
4.61162 4.05569 0.0 
4.1797 4.07872 0.0 
4.00261 3.99406 0.0 
4.02988 4.02946 0.0 
3.57706 3.60692 0.0 
4.46224 4.04264 0.0 
4.81491 3.98952 0.0 
13.2253 0 0.0 
10.1351 3.82958 0.0 
3.99803 4.00953 0.0 
5.06347 3.99507 0.0 
4.97238 3.98439 0.0 
0.490237 2.82729 0.0 
4.22552 3.96672 0.0 
5.08198 4.04957 0.0 
5.02947 4.00625 0.0 
4.34086 3.91922 0.0 
5.63104 7.16389 0.0 
4.44137 3.97219 0.0 
4.84152 3.99091 0.0 
4.73083 4.053 0.0 
13.4125 7.46568 0.0 
4.08711 3.98632 0.0 
3.99883 4.01382 0.0 
4.04995 3.9756 0.0 
4.00597 4.01101 0.0 
3.98048 4.05294 0.0 
4.00166 3.99084 0.0 
4.84023 3.97761 0.0 
4.13386 4.04638 0.0 
3.98816 4.01224 0.0 
5.06642 3.98446 0.0 
4.68097 4.0182 0.0 
3.98931 4.01522 0.0 
3.99752 4.02893 0.0 
4.01884 3.99521 0.0 
4.17717 3.91274 0.0 
3.98628 3.99582 0.0 
0.958544 0 0.0 
4.98756 3.96669 0.0 
4.01204 4.00974 0.0 
13.0749 0.735961 0.0 
5.06968 4.00103 0.0 
4.35485 4.07122 0.0 
4.05603 3.99252 0.0 
8.1554 7.24604 0.0 
4.00774 3.99043 0.0 
3.98163 4.03116 0.0 
3.99976 3.99731 0.0 
4.3171 4.12404 0.0 
4.12366 4.05403 0.0 
3.93549 3.94275 0.0 
4.03286 3.9804 0.0 
9.52987 5.94501 0.0 
5.10311 4.0306 0.0 
4.28205 4.09231 0.0 
4.57475 3.97932 0.0 
5.19634 3.88867 0.0 
6.41979 3.77344 0.0 
4.0847 3.95476 0.0 
4.46386 3.93209 0.0 
4.16061 4.08721 0.0 
4.74219 4.02049 0.0 
0.912073 2.29827 0.0 
4.55516 4.06068 0.0 
4.43166 3.97261 0.0 
3.96028 4.05564 0.0 
4.11276 4.07293 0.0 
4.25138 4.06603 0.0 
4.00443 4.00062 0.0 
1.9809 6.60229 0.0 
4.13396 4.05674 0.0 
4.95766 3.98268 0.0 
4.84169 4.01434 0.0 
5.18793 4.05304 0.0 
4.54763 3.97745 0.0 
4.07928 4.04545 0.0 
3.98111 4.00805 0.0 
5.18183 4.12623 0.0 
3.99352 3.97666 0.0 
0.747562 5.69493 0.0 
5.01916 4.0038 0.0 
4.99691 3.99851 0.0 
4.27492 4.05293 0.0 
4.10308 3.95678 0.0 
4.03267 4.02146 0.0 
4.02423 3.98532 0.0 
5.83812 4.00519 0.0 
4.1378 4.0314 0.0 
4.04424 3.97458 0.0 
4.01361 3.98052 0.0 
3.98206 3.97395 0.0 
13.6383 6.81874 0.0 
4.05351 4.08555 0.0 
4.76987 3.98756 0.0 
4.03397 4.05627 0.0 
4.02402 4.04636 0.0 
4.11889 4.08242 0.0 
4.00375 4.03912 0.0 
3.99122 4.03342 0.0 
4.03789 3.97231 0.0 
3.99417 4.04189 0.0 
7.6181 7.09785 0.0 
4.65665 4.03716 0.0 
4.06411 4.00919 0.0 
3.99997 3.99241 0.0 
4.00433 4.017 0.0 
5.0427 4.00784 0.0 
4.41083 4.08746 0.0 
3.98918 4.03714 0.0 
4.01887 3.96776 0.0 
4.01059 4.0357 0.0 
4.25307 4.0792 0.0 
3.81638 5.87561 0.0 
4.09975 3.95651 0.0 
4.13306 4.06692 0.0 
4.00056 4.04248 0.0 
1.05155 0.371395 0.0 
2.48135 1.40934 0.0 
3.9896 4.00463 0.0 
4.08765 3.96522 0.0 
3.98613 3.98439 0.0 
4.97608 4.00628 0.0 
4.00273 4.04763 0.0 
4.02428 4.00868 0.0 
4.03655 3.96298 0.0 
4.82027 3.96465 0.0 
9.91588 3.95011 0.0 
3.99602 4.00219 0.0 
4.64604 3.98167 0.0 
4.95382 3.98669 0.0 
4.84498 3.98398 0.0 
3.98643 3.99986 0.0 
5.0035 4.00937 0.0 
4.04207 3.9603 0.0 
3.99581 3.98523 0.0 
4.74823 4.06761 0.0 
4.00862 3.98581 0.0 
3.98481 4.00073 0.0 
3.97761 4.0047 0.0 
4.02042 4.02383 0.0 
4.10709 4.0434 0.0 
8.01636 3.98004 0.0 
4.86306 4.02436 0.0 
4.11077 4.06077 0.0 
3.98558 4.00796 0.0 
4.55714 3.97705 0.0 
3.14048 6.00851 0.0 
4.12704 4.05199 0.0 
5.03397 3.96853 0.0 
4.5519 4.06104 0.0 
4.27982 4.05867 0.0 
14 6.70716 0.0 
4.03572 3.97881 0.0 
4.99712 4.01383 0.0 
0.839099 1.2823 0.0 
4.78151 4.03512 0.0 
4.75518 3.98679 0.0 
4.25234 4.02814 0.0 
4.07076 4.03121 0.0 
4.10409 3.96117 0.0 
4.10927 3.95709 0.0 
3.99705 4.04765 0.0 
4.16214 4.05302 0.0 
4.13843 3.9353 0.0 
4.27037 4.11663 0.0 
5.0004 3.98388 0.0 
4.59048 4.07283 0.0 
10.7396 5.64124 0.0 
4.15922 3.96544 0.0 
5.02653 4.03029 0.0 
4.02241 4.04141 0.0 
3.9487 4.03134 0.0 
4.42728 4.06736 0.0 
4.02972 4.05235 0.0 
4.80765 3.91634 0.0 
4.01777 4.04818 0.0 
1.52193 0 0.0 
8.66912 5.53469 0.0 
4.0266 3.96232 0.0 
4.84885 5.80485 0.0 
4.10695 3.94953 0.0 
3.99713 3.98342 0.0 
4.76861 4.03749 0.0 
4.02519 4.02675 0.0 
13.0093 4.46458 0.0 
4.03778 3.99834 0.0 
6.24151 3.34079 0.0 
4.50566 4.00198 0.0 
4.25938 3.9481 0.0 
4.09884 4.05321 0.0 
4.98817 4.01929 0.0 
4.27237 3.94803 0.0 
3.95357 4.06538 0.0 
4.2972 3.9267 0.0 
4.10175 3.95894 0.0 
6.50435 4.116 0.0 
4.35043 3.9702 0.0 
4.37636 4.0695 0.0 
4.00385 4.11235 0.0 
4.00572 3.98505 0.0 
4.31727 3.96909 0.0 
4.13994 3.92182 0.0 
0.483501 5.24555 0.0 
8.41556 7.83399 0.0 
3.99904 3.97967 0.0 
3.94862 4.04213 0.0 
4.07177 4.06836 0.0 
4.20514 4.08997 0.0 
3.74153 4.1412 0.0 
2.3117 3.20636 0.0 
3.84215 3.97152 0.0 
3.98638 3.96668 0.0 
[...]
<PointData>
  <DataArray type = "Float64" Name="Vitesse" NumberOfComponents="3" format="ascii">
1 0 0.0 
1.0065 0 0.0 
1.00519 0 0.0 
1 0 0.0 
1.029 0.172874 0.0 
0.256358 -0.0269776 0.0 
0.908409 0.0117333 0.0 
0.999329 -0.00206235 0.0 
0.00631186 -0.000530678 0.0 
0 0 0.0 
-3.49211e-87 -3.20542e-88 0.0 
0.0612963 0.0670464 0.0 
3.70593e-161 -5.99491e-161 0.0 
1.00807 0.000699778 0.0 
1.00611 -0.000283003 0.0 
0.00909382 -0.000233371 0.0 
0.997981 -0.00214245 0.0 
0.570755 -0.0151947 0.0 
1.05205 -0.186538 0.0 
-2.89027e-22 -3.27659e-23 0.0 
0.150852 -0.0108082 0.0 
0.0663239 -0.0100539 0.0 
0.945945 -0.0584508 0.0 
0.000406421 -1.22615e-06 0.0 
0 0 0.0 
0 0 0.0 
1e-307 1e-307 0.0 
0.911188 0.337075 0.0 
1.00953 -0.0017414 0.0 
1.01616 -0.181052 0.0 
0.008314 -0.000438069 0.0 
0 0 0.0 
0.836126 0.359143 0.0 
0.737439 -0.0973246 0.0 
0 0 0.0 
1.05722 0.21678 0.0 
0 0 0.0 
0.340049 -0.0488584 0.0 
0.43415 0.00421923 0.0 
0.590596 -0.228656 0.0 
0.0597836 -0.0183165 0.0 
0 0 0.0 
0.1487 -0.0161969 0.0 
1.03071 0.212477 0.0 
-4.80403e-174 -5.8015e-175 0.0 
-1.00669e-73 -3.35276e-75 0.0 
0.00280326 0.000159353 0.0 
0.0102661 0.000564981 0.0 
-3.08377e-124 -3.43685e-126 0.0 
0.450112 -0.00565821 0.0 
0.306137 0.0419936 0.0 
0.398589 -0.147874 0.0 
0 0 0.0 
0.878102 -0.260567 0.0 
0.867859 0.348878 0.0 
0.975673 0.193455 0.0 
1.00095 -0.144156 0.0 
0.766958 0.372114 0.0 
-2.424e-182 -2.9273e-183 0.0 
3.9673e-10 5.93025e-11 0.0 
0.669196 -0.0566403 0.0 
1.02589 0.0601378 0.0 
0.0250527 -0.00490729 0.0 
1.00672 -0.000119014 0.0 
1.00673 -0.00106752 0.0 
-5.46152e-235 -8.78888e-236 0.0 
0.670998 -0.0827495 0.0 
0.9337 -0.234309 0.0 
0.167324 0.0631609 0.0 
0.945978 -0.00452712 0.0 
0.922478 0.278812 0.0 
0.192606 -0.294062 0.0 
0.0619644 -0.00937083 0.0 
-8.89551e-241 -1.4315e-241 0.0 
2.33371e-299 -6.55774e-301 0.0 
1.00685 -0.00244793 0.0 
0.706674 0.095994 0.0 
0 0 0.0 
0.645574 -0.305846 0.0 
2.48535e-148 7.2712e-149 0.0 
1.00943 0.000131143 0.0 
0.737304 -0.049791 0.0 
0.987457 -0.00370938 0.0 
8.70137e-255 1.67907e-255 0.0 
1.00773 0.00124224 0.0 
0.347553 0.00366498 0.0 
0.181004 0.0238009 0.0 
0.775523 -0.083807 0.0 
0.99967 0.000430556 0.0 
0.363142 -0.00573479 0.0 
0.0647298 0.0141899 0.0 
0.609916 0.162161 0.0 
0.0459548 -0.00318952 0.0 
1.0095 0 0.0 
1.00632 0 0.0 
0.197113 -0.0262509 0.0 
0 0 0.0 
1.01204 0.000538501 0.0 
1 -2.32745e-179 0.0 
0.851029 0.168216 0.0 
0.00203092 9.36745e-05 0.0 
0.632217 0.0113155 0.0 
1.00133 0.00470804 0.0 
0.412787 0.00265863 0.0 
0 0 0.0 
0.189522 0.0402515 0.0 
0.825326 -0.109763 0.0 
1 0 0.0 
0.581144 0.0827394 0.0 
0.284148 0.0093154 0.0 
1.00575 -0.00368668 0.0 
0.066773 0.0359535 0.0 
0.910559 0.0158792 0.0 
1.00073 0.00353224 0.0 
0.315613 0.0747325 0.0 
1.00795 -0.00978722 0.0 
0.731056 0.332344 0.0 
0.0940181 -0.0107862 0.0 
7.56611e-197 1.29654e-197 0.0 
1.01012 -0.0022454 0.0 
0.00448365 0.000571264 0.0 
0 0 0.0 
-8.58213e-111 6.16098e-112 0.0 
0.899629 -0.277563 0.0 
0.125478 0.017681 0.0 
0.00865582 0.000523902 0.0 
0.145413 -0.0209063 0.0 
0.00149829 -0.000259701 0.0 
0.334308 0.174583 0.0 
0.999935 -0.00229088 0.0 
0.801715 0.16457 0.0 
1 0 0.0 
0.00508915 0.000195167 0.0 
0.657547 -0.286232 0.0 
0.0150808 -0.00727923 0.0 
0.864451 0.0052952 0.0 
0.999499 0.00264438 0.0 
0.1063 0.0189086 0.0 
1.00943 -0.000875676 0.0 
1.0201 -0.0785884 0.0 
0.0773832 -0.0064081 0.0 
1.01309 -0.000376657 0.0 
1.05286 -0.132469 0.0 
0.112308 0.036425 0.0 
0.941219 0.00197654 0.0 
1.00741 0.000229454 0.0 
1 0 0.0 
0.127216 0.00407586 0.0 
0.010333 0.00146135 0.0 
0 0 0.0 
0.369216 0.0470756 0.0 
0.116604 -0.00341024 0.0 
1.00048 0.000997177 0.0 
0.28303 0.0460795 0.0 
0.013344 0.000907877 0.0 
1.01709 -0.0419154 0.0 
0.686638 -0.046425 0.0 
1.01123 -0.257103 0.0 
0.835759 -0.141334 0.0 
1.07157 -0.218249 0.0 
1.04227 -0.0399889 0.0 
-3.25296e-230 4.46456e-231 0.0 
0.857809 -0.0505305 0.0 
0 0 0.0 
0.915981 -0.131354 0.0 
0.133288 0.00501676 0.0 
-3.15218e-245 -5.60808e-246 0.0 
0.0631237 -0.0177198 0.0 
0.620874 0.370508 0.0 
0.0311848 -0.000351426 0.0 
0.954033 0.0609982 0.0 
-1.76366e-204 -2.83811e-205 0.0 
1.06507 0.189331 0.0 
0.673247 0.0994774 0.0 
1.10674 0.16871 0.0 
0.724 0.121357 0.0 
0.875435 -0.010866 0.0 
0.721509 0.156036 0.0 
1.00072 -0.000585658 0.0 
0.99998 0.00203544 0.0 
0.886041 0.0330878 0.0 
0.999374 -0.000586271 0.0 
0.792037 -0.0106943 0.0 
0.019981 0.000672053 0.0 
0.5234 0.019368 0.0 
0.609865 -0.464486 0.0 
0.445634 0.0694328 0.0 
0.761863 0.327341 0.0 
0.108645 -0.00272564 0.0 
1.01308 -0.131949 0.0 
0.0787985 -0.0142968 0.0 
0.0103116 -0.00114446 0.0 
1.00847 0.00125566 0.0 
0.473627 0.331454 0.0 
-2.2797e-225 -3.66854e-226 0.0 
0.946773 -0.0518922 0.0 
0.0231949 -0.00479393 0.0 
1.00339 -0.00362982 0.0 
0.7437 -0.0106153 0.0 
4.37098e-158 -7.07073e-158 0.0 
0.122449 0.00184203 0.0 
1.02201 0.000891172 0.0 
-9.64652e-26 -4.26916e-26 0.0 
-1.07964e-101 2.48945e-102 0.0 
-6.99278e-245 -1.24411e-245 0.0 
-6.66809e-33 3.20079e-34 0.0 
1.00729 -0.000131474 0.0 
-2.94415e-190 -3.55545e-191 0.0 
0.60995 0.3053 0.0 
0.432646 0.0521972 0.0 
1.00852 0.00122642 0.0 
0.087415 -0.0093798 0.0 
1.00202 0.00172446 0.0 
0.317007 0.0598569 0.0 
0.252719 0.00904447 0.0 
0.849851 0.315398 0.0 
1.00788 -0.000693362 0.0 
1.01288 -0.00308693 0.0 
1.00976 -0.00102157 0.0 
0.947933 -0.0453835 0.0 
1.0005 -0.000466266 0.0 
1.00772 -0.000344093 0.0 
1.00202 -0.000375994 0.0 
0.00810742 0.000124318 0.0 
1.58523e-223 1.18248e-224 0.0 
0.00942928 0.000740315 0.0 
0.603145 0.336428 0.0 
0.350252 0.24053 0.0 
0.0491768 -0.116935 0.0 
0.0434564 0.0105501 0.0 
1.01036 -0.00170557 0.0 
0.855065 -0.0485986 0.0 
4.21875e-08 -6.66435e-10 0.0 
0.479702 -0.446303 0.0 
1.00849 -0.00270429 0.0 
0.302258 0.0168011 0.0 
1.01375 -0.00834065 0.0 
1e-307 1e-307 0.0 
0.46261 -0.0135445 0.0 
0.607477 -0.039691 0.0 
0.0444315 -0.00702385 0.0 
0 0 0.0 
-1.84289e-179 1.02687e-181 0.0 
0.00436085 0.000395936 0.0 
0.114743 -0.0133319 0.0 
1.01232 -0.000677909 0.0 
0.255812 -0.0225384 0.0 
0.17737 -0.0172031 0.0 
0.025047 0.00661772 0.0 
0.0838453 0.00729094 0.0 
1.72568e-163 1.7042e-164 0.0 
0.00820787 -0.000196908 0.0 
1.07944 -0.201664 0.0 
0.244235 0.00533929 0.0 
0.595203 -0.347171 0.0 
0.000799336 0.00010439 0.0 
-4.437e-13 -2.9575e-14 0.0 
-2.57653e-32 -4.11068e-33 0.0 
1.00944 -0.000898203 0.0 
0.0161911 -0.00906813 0.0 
0.010934 -0.000656455 0.0 
0.637102 0.0892677 0.0 
-5.94052e-164 4.81744e-164 0.0 
0.204566 0.0844765 0.0 
0.980969 -0.0242589 0.0 
1.50965e-111 1.82538e-113 0.0 
0.00671048 1.1478e-05 0.0 
1.00684 0 0.0 
0.934799 -0.000110949 0.0 
0.198161 0.178901 0.0 
0.122106 0.0113013 0.0 
0.12827 0.00752538 0.0 
0.999944 -0.000380295 0.0 
0.0200196 -0.000243065 0.0 
0.260197 -0.0287992 0.0 
0.0535049 -0.00206842 0.0 
0.847109 -0.0157422 0.0 
1.0103 0.000275877 0.0 
0.0144455 0.00118916 0.0 
0.00468427 0.000291164 0.0 
0.0804876 -0.0081388 0.0 
1.00566 -0.000274632 0.0 
0 0 0.0 
0.311347 0.265405 0.0 
0.0553059 -0.00875228 0.0 
-9.70597e-50 -1.00562e-49 0.0 
0.759788 0.198642 0.0 
0.307623 -0.320687 0.0 
0.133031 0.00615459 0.0 
0 0 0.0 
0.433298 0.110641 0.0 
0.186073 0.0193906 0.0 
6.73572e-305 -1.89276e-306 0.0 
0.454455 0.160445 0.0 
0.606782 0.315257 0.0 
0 0 0.0 
1.07382 -0.0962652 0.0 
0.460644 -0.192603 0.0 
1.0003 0 0.0 
0.306535 0.020686 0.0 
0 0 0.0 
1.00711 0.000304988 0.0 
0.10509 0.00635177 0.0 
0.051236 -0.000320066 0.0 
-1.42389e-229 1.95426e-230 0.0 
1.00848 -0.000583002 0.0 
0 0 0.0 
0.646135 0.180667 0.0 
0.0620478 -0.144884 0.0 
1.04963 0.0737949 0.0 
0.0813475 0.0150547 0.0 
0.850434 -0.119503 0.0 
-9.85869e-20 2.13187e-20 0.0 
1.00866 -0.00111835 0.0 
0.157029 -0.0161277 0.0 
0.642885 0.0457547 0.0 
-1.86472e-35 -2.1843e-36 0.0 
0.907993 0.0321436 0.0 
1.00584 0.00440467 0.0 
0.717842 -0.109845 0.0 
0.605441 0.00646726 0.0 
0.916467 0.155438 0.0 
9.87064e-293 -2.77367e-294 0.0 
0.999961 -0.000941807 0.0 
0.0145016 -0.000915385 0.0 
0.00495026 0.000656456 0.0 
0.78211 0.134935 0.0 
0.85347 0.19298 0.0 
2.15767e-122 1.66611e-123 0.0 
-3.59037e-83 -3.9144e-83 0.0 
1.00145 0.00258605 0.0 
0.122793 0.0196448 0.0 
0.136213 0.00719307 0.0 
1.95254e-59 -1.3094e-60 0.0 
0.343979 -0.0253967 0.0 
0.00222337 4.74101e-05 0.0 
0.142648 0.0389265 0.0 
0.503684 0.00935186 0.0 
0.871056 -0.0443091 0.0 
0.709506 -0.378451 0.0 
1.00001 0.00108693 0.0 
0.0436525 -0.00127782 0.0 
0.00610698 0.000293754 0.0 
0 0 0.0 
0.528847 -0.0578382 0.0 
0 0 0.0 
-3.76079e-33 1.1511e-33 0.0 
0.447764 0.000804217 0.0 
-7.59752e-250 -1.35168e-250 0.0 
0.183184 -0.0314234 0.0 
0.517793 -0.25584 0.0 
0.716493 -0.26779 0.0 
1.00604 -0.000629861 0.0 
0.976192 0.281162 0.0 
0.00507244 0.000478953 0.0 
0.888937 0.345727 0.0 
0.817881 0.364287 0.0 
0.981125 0.216425 0.0 
0.715575 0.336901 0.0 
0.647405 0.256232 0.0 
0.439832 -0.115986 0.0 
0.711391 0.270857 0.0 
1.00903 -0.000751854 0.0 
-2.23953e-104 1.09564e-105 0.0 
2.57895e-277 -4.32093e-279 0.0 
0.27608 -0.347454 0.0 
0.318698 0.272377 0.0 
0.0662709 -0.00161161 0.0 
0.378365 -0.00103778 0.0 
0.676279 0.24136 0.0 
0.892324 -0.368851 0.0 
0.708427 0.375234 0.0 
0.378242 0.0293534 0.0 
1.00934 0.00910862 0.0 
0.557602 -0.0642299 0.0 
0.539657 0.100263 0.0 
0.727466 0.30814 0.0 
1.00035 -0.00026505 0.0 
1.00191 -0.0027951 0.0 
0.34486 -0.024772 0.0 
0.278929 -0.0315989 0.0 
0.608541 -0.292574 0.0 
0.00215871 -0.000288132 0.0 
0.762047 0.304925 0.0 
0 0 0.0 
0.871732 -0.262613 0.0 
0.256881 0.0110284 0.0 
0.788034 0.000364522 0.0 
0.133525 -0.0764522 0.0 
0.0039473 0.000434097 0.0 
0.096003 0.00497968 0.0 
0.0727949 0.0035202 0.0 
0.424169 -0.124185 0.0 
0.0255482 -0.013642 0.0 
0.893337 -0.246977 0.0 
0.579818 -0.434239 0.0 
0.22968 -0.0193289 0.0 
0.323176 -0.202599 0.0 
0.448431 -0.100826 0.0 
0.540725 -0.0344324 0.0 
0.14058 0.0669163 0.0 
-1.04332e-198 -2.29539e-199 0.0 
0.703421 0.000340246 0.0 
0.00187796 -0.000295906 0.0 
0.496086 0.106466 0.0 
0.439192 0.024666 0.0 
0.0115679 0.000912967 0.0 
1.00447 0.00720032 0.0 
-6.90357e-113 -7.37505e-114 0.0 
0.302291 0.0286798 0.0 
0.0158411 -0.000609204 0.0 
0 0 0.0 
1.00595 -0.000708959 0.0 
5.14566e-05 -1.09519e-05 0.0 
0.0332319 -0.0118558 0.0 
1.00016 -0.000656377 0.0 
1.52356e-05 -2.61994e-06 0.0 
0.00600967 0.000866247 0.0 
-7.66887e-201 4.32113e-203 0.0 
0 0 0.0 
0.357106 -0.0342704 0.0 
0.485599 -0.0483042 0.0 
0.748621 0.27741 0.0 
3.46115e-269 6.67091e-270 0.0 
0.936343 -0.0983622 0.0 
1.04152 0.0986905 0.0 
0.151355 0.0178613 0.0 
0.189369 -0.0121832 0.0 
1.00858 -0.000892272 0.0 
0.0725999 -0.00312682 0.0 
0.108528 -0.0215538 0.0 
0.768586 0.364635 0.0 
0.746717 0.0632688 0.0 
0.000126078 5.80586e-06 0.0 
0.863627 0.354121 0.0 
0.750438 0.0204156 0.0 
0.814497 0.356107 0.0 
1.00081 0 0.0 
1.00936 -0.00171276 0.0 
0.943637 -0.334338 0.0 
1.01658 0.0038433 0.0 
0.746837 -0.0905199 0.0 
0.621053 -0.446638 0.0 
0.00315644 -0.000338633 0.0 
0.166082 0.0916484 0.0 
1.00931 -0.000868631 0.0 
0 0 0.0 
1.01028 0.00495109 0.0 
-5.08592e-175 -5.72926e-176 0.0 
0.415696 -0.00505862 0.0 
0.291201 0.0696625 0.0 
0.0460511 -0.00985307 0.0 
0.407538 -0.00324681 0.0 
0.809879 0.127232 0.0 
0.783969 -0.0185174 0.0 
0.455137 -0.0477881 0.0 
0.846627 -0.00886603 0.0 
0.00113492 4.24353e-05 0.0 
0.0211751 -0.000421292 0.0 
0.914586 0.197794 0.0 
0.497323 -0.353857 0.0 
0.00770154 0.000130101 0.0 
1.06758 -0.123127 0.0 
0.999962 0.000648956 0.0 
1.0081 -0.000118239 0.0 
0.69776 -0.448977 0.0 
0.767605 0.0872068 0.0 
0.950884 0.283419 0.0 
0.809724 0.104865 0.0 
0.94014 0.0318067 0.0 
0.997257 -0.00322779 0.0 
0.88862 -0.0269976 0.0 
0.772516 -0.290284 0.0 
0.299729 -0.0259992 0.0 
8.15204e-147 -1.31872e-146 0.0 
1.00778 -0.000195265 0.0 
3.25866e-113 -6.69896e-116 0.0 
0.172653 0.0129095 0.0 
1.00045 0.00521309 0.0 
0.446227 0.118541 0.0 
1.01075 7.24583e-06 0.0 
1.0116 -0.00117911 0.0 
1.00649 0.000595568 0.0 
0.590707 0.0805299 0.0 
0.0430885 -0.0167788 0.0 
0.985368 -0.0294514 0.0 
0.0147521 0.000509889 0.0 
1.00987 0.00208203 0.0 
1.00839 0.000533787 0.0 
0.00535713 -0.000696745 0.0 
0.927107 -3.75397e-05 0.0 
1.00992 -0.00126718 0.0 
1.00736 -0.000680653 0.0 
1.00786 0 0.0 
0.861864 0.258526 0.0 
1.00695 -0.000819649 0.0 
0.416737 -0.0692913 0.0 
1.01015 0.000988187 0.0 
8.73078e-10 9.86419e-11 0.0 
-1.00457e-229 -1.6166e-230 0.0 
0.965735 0.304953 0.0 
1.06241 0.13613 0.0 
0.000684727 6.44837e-05 0.0 
0.0118371 0.000790289 0.0 
3.05365e-76 3.43509e-76 0.0 
9.02975e-06 -2.18273e-06 0.0 
0.839092 0.199533 0.0 
0.862269 0.00620737 0.0 
2.67061e-237 5.05369e-238 0.0 
0.719647 0.06156 0.0 
0.00563428 0.000197312 0.0 
0.215432 0.216753 0.0 
1.06249 0.0650162 0.0 
0.00636605 -0.000294172 0.0 
0.209147 0.00243287 0.0 
0 0 0.0 
0.294153 0.114749 0.0 
1.01227 -0.293993 0.0 
0.661453 0.279689 0.0 
0.323554 0.165517 0.0 
1.00952 0.000493112 0.0 
0.882978 0.34111 0.0 
0.924889 -0.302257 0.0 
0.00964609 0.000754552 0.0 
0 0 0.0 
-1.63805e-193 -1.97817e-194 0.0 
1.08922 -0.1435 0.0 
1.00661 0.256733 0.0 
1.01197 -0.000131341 0.0 
0.000289304 -3.08593e-05 0.0 
0.0488001 -0.00344174 0.0 
1.01009 0.00126562 0.0 
0.00410838 0.000415239 0.0 
0.982609 0.0805106 0.0 
1.01019 -0.0018776 0.0 
0.727101 0.191143 0.0 
1.00673 0 0.0 
0.677946 0.199071 0.0 
0.812703 0.0540831 0.0 
0.500648 0.152013 0.0 
1.00871 -0.00117502 0.0 
1.0086 -0.000125787 0.0 
0.807307 -0.00277573 0.0 
-2.8421e-95 -4.55271e-96 0.0 
1.03618 -0.272761 0.0 
-3.83642e-196 2.13767e-198 0.0 
0.263622 -0.0187607 0.0 
-1.69559e-247 -2.0082e-247 0.0 
0.593616 -0.0734422 0.0 
1.0104 -0.000290928 0.0 
0.0720463 0.0184055 0.0 
1.01188 -0.00460404 0.0 
0.536963 -0.0620216 0.0 
1.06048 -0.0535317 0.0 
-9.92816e-246 2.06014e-246 0.0 
-1.09364e-128 7.85109e-130 0.0 
1.09294 -0.096041 0.0 
1.00813 -0.0449312 0.0 
1.12576 0.0961876 0.0 
0.225773 -0.0599609 0.0 
0.0103863 -0.000796512 0.0 
0.743479 -0.161337 0.0 
0.944699 -0.359676 0.0 
0.00274518 -0.000347703 0.0 
0 0 0.0 
1.00897 -0.00131196 0.0 
1.00828 0.000750382 0.0 
-5.29833e-229 -6.27503e-229 0.0 
0.693019 -0.288845 0.0 
0 0 0.0 
1.00957 -0.00187706 0.0 
1.00917 0.000609519 0.0 
0.29658 0.175706 0.0 
0.0426824 -0.000782485 0.0 
1.02036 -0.111059 0.0 
0.284778 0.0627738 0.0 
0.161169 0.168049 0.0 
0.852508 -0.296094 0.0 
0.0488846 -0.0051997 0.0 
2.16887e-05 -4.37373e-07 0.0 
1.00004 0.000516234 0.0 
0.745935 -0.428875 0.0 
1.0097 1.10283e-05 0.0 
0.730479 -0.089469 0.0 
0.0253835 -0.001559 0.0 
0.859017 0.292596 0.0 
0.117803 -0.0215347 0.0 
0.819795 -0.245036 0.0 
0.905111 0.331541 0.0 
1.71447e-07 1.69121e-09 0.0 
7.09155e-113 1.34759e-114 0.0 
6.07335e-06 -7.69672e-07 0.0 
0.141854 0.00623802 0.0 
0.033256 -0.0151411 0.0 
1.00873 0.00136411 0.0 
0.844049 -0.00887946 0.0 
0.8026 -0.352231 0.0 
1.54722e-248 2.98489e-249 0.0 
1.01182 0.00118657 0.0 
0 0 0.0 
0.0081278 0.000148576 0.0 
1.00789 6.75505e-05 0.0 
1.00235 0.152697 0.0 
1.00936 -0.00146103 0.0 
0.645276 -0.00932672 0.0 
1.00643 -0.000126637 0.0 
1.00756 0.000126215 0.0 
0.528763 -0.153144 0.0 
0.764045 -0.332277 0.0 
1.00928 0.000721063 0.0 
0.180076 0.0100628 0.0 
0 0 0.0 
0.0074024 0.000433102 0.0 
1.00854 0.000197006 0.0 
1.00051 0.000590387 0.0 
4.54361e-05 -5.86814e-06 0.0 
0.226545 0.0234605 0.0 
1.0103 0.00142728 0.0 
0.00708408 0.000666131 0.0 
0.010532 -0.00105267 0.0 
0.041117 -0.00808055 0.0 
0 0 0.0 
1.00004 0.00161317 0.0 
0.0120973 0.00117368 0.0 
0.10049 -0.0116066 0.0 
0.969095 -0.341597 0.0 
0.350812 0.0507666 0.0 
-7.09202e-128 -6.13136e-128 0.0 
0.303161 -0.0279157 0.0 
0.318094 0.108693 0.0 
0.273609 0.0665067 0.0 
0.84901 0.331148 0.0 
8.43192e-136 8.32704e-137 0.0 
1.11661e-157 1.10271e-158 0.0 
1.00899 0.00059279 0.0 
0.309366 0.221976 0.0 
-3.75773e-90 1.73269e-91 0.0 
1.01026 0.270823 0.0 
0.561521 -0.208128 0.0 
0.608841 -0.016727 0.0 
0.805968 0.165365 0.0 
1.01345 -0.110619 0.0 
0.842898 0.345591 0.0 
8.06323e-05 -1.21977e-05 0.0 
1.58e-138 1.56035e-139 0.0 
0.985125 -0.0309179 0.0 
0.238158 -0.0232596 0.0 
1.00001 -0.000535023 0.0 
0.84898 -0.35532 0.0 
0.243229 0.238294 0.0 
-2.23912e-32 -2.51829e-32 0.0 
0.616381 -0.116885 0.0 
1.00541 0 0.0 
1.01243 0.097042 0.0 
0.563763 0.0550359 0.0 
-9.72483e-238 -1.56496e-238 0.0 
1.84092e-157 1.818e-158 0.0 
1.00764 0.00028024 0.0 
0.158309 -0.252043 0.0 
0.244556 0.0442679 0.0 
0.00933255 6.78957e-06 0.0 
0.142168 -0.0038245 0.0 
0.310452 0.103909 0.0 
1.011 -0.00135905 0.0 
0 0 0.0 
1e-307 1e-307 0.0 
0.0641402 -0.00782697 0.0 
0 0 0.0 
0.00943501 0.000422146 0.0 
0.0725005 -0.00821718 0.0 
0.661875 0.00757107 0.0 
1.00237 -0.00113226 0.0 
0.84117 0.341323 0.0 
0.00536668 0.000203729 0.0 
0.999685 -0.00322032 0.0 
0.164308 0.017155 0.0 
0.353835 0.0906765 0.0 
0.741545 0.30311 0.0 
0.00419957 0.000103266 0.0 
0.0216766 0.00103169 0.0 
6.31447e-09 -1.34389e-09 0.0 
0.619598 0.0109522 0.0 
1.00054 0.00243287 0.0 
0.594971 -0.026543 0.0 
1.01345 0.114511 0.0 
1.05073 0.00685098 0.0 
0.150708 0.000758813 0.0 
2.60116e-07 -4.02367e-08 0.0 
0.0758975 0.0156398 0.0 
0.859716 -0.402569 0.0 
0.227348 0.0239625 0.0 
1.00781 0.000128302 0.0 
0.1386 -0.241297 0.0 
1.00947 0.00153763 0.0 
-1.00804e-13 -1.42106e-14 0.0 
1.01209 -0.00200751 0.0 
1.00778 0.000179462 0.0 
0.678454 -0.367761 0.0 
1.00492 0.00113618 0.0 
1.00771 -0.00396615 0.0 
0.59387 -0.143026 0.0 
1.04115 -0.000415952 0.0 
0.0263964 -0.00700234 0.0 
0.00979321 0.00082312 0.0 
0.840492 0.0242678 0.0 
-1.57844e-69 -1.42858e-70 0.0 
0.339461 -0.244776 0.0 
1.00053 0.0042678 0.0 
0.0714061 0.00625401 0.0 
1.09289 0.0120792 0.0 
0.999951 -0.000487302 0.0 
0.362969 -0.161872 0.0 
-5.34368e-38 -3.66506e-39 0.0 
0.00445023 -0.000445091 0.0 
0.625721 -0.115372 0.0 
0.113264 0.00212363 0.0 
0.311754 -0.262464 0.0 
0.115538 0.014159 0.0 
0.718553 0.219846 0.0 
1.00499 -0.00287495 0.0 
1.12797 0.0495569 0.0 
-1.2126e-26 1.18587e-27 0.0 
0.47026 -0.0257112 0.0 
1.00835 -0.00148671 0.0 
1.00924 0.000218351 0.0 
0.037769 -0.00867725 0.0 
1.1346e-75 3.50563e-77 0.0 
0.0159469 -0.000799779 0.0 
0.639911 0.360124 0.0 
1.00922 -0.00152402 0.0 
0.143377 -0.0144091 0.0 
1.0249 -0.228077 0.0 
0.533088 0.0110561 0.0 
0.138071 0.00454875 0.0 
-2.90128e-31 2.40985e-32 0.0 
1.97107e-07 -2.60678e-09 0.0 
0.00133252 -0.000376781 0.0 
0.49631 0.231179 0.0 
0.526817 0.0957208 0.0 
0.00912148 -0.000245366 0.0 
0.982066 0.175357 0.0 
1.7642e-151 1.74307e-152 0.0 
0.620852 0.0649986 0.0 
0.000265142 2.51721e-05 0.0 
0.490599 -0.00920067 0.0 
1.00735 -0.000270073 0.0 
1.00507 -0.0979882 0.0 
0.998849 -0.000146579 0.0 
1.00833 0.000205205 0.0 
0.369172 0.0645413 0.0 
0 0 0.0 
0.0333449 0.00058613 0.0 
0.325386 0.110139 0.0 
1.00973 0.000755788 0.0 
8.08138e-152 7.98077e-153 0.0 
0.19389 -0.00580678 0.0 
1.00778 0.000723784 0.0 
0.00888212 0.000149889 0.0 
1.00973 0.000839215 0.0 
0.808104 -0.0850725 0.0 
0.99147 -0.0215727 0.0 
0 0 0.0 
0.154605 0.00791586 0.0 
1.20576e-05 -1.56632e-06 0.0 
0.919387 0.0328606 0.0 
0.0233067 -0.00473484 0.0 
0.00178692 -0.000224947 0.0 
-1.27729e-23 1.66187e-24 0.0 
1.00388 0.00268631 0.0 
0.0409168 -0.000230042 0.0 
0.938481 -0.176152 0.0 
0.287368 -0.0317046 0.0 
-1.20253e-14 -3.92071e-16 0.0 
0.906931 -0.391434 0.0 
0.696533 0.0439438 0.0 
0.839074 -0.332081 0.0 
0.16152 0.0056866 0.0 
0.120311 0.0113994 0.0 
1.00848 6.7222e-05 0.0 
1.00668 -0.000298364 0.0 
1.01508 0.00247571 0.0 
0.727356 0.0571502 0.0 
-2.36517e-177 -2.85626e-178 0.0 
0.968468 0.218204 0.0 
0.94699 0.0114083 0.0 
0.0394187 0.00646564 0.0 
9.56685e-200 -8.27293e-201 0.0 
0.00334682 0.000286625 0.0 
1.00293 -0.00158862 0.0 
0.02896 0.00913172 0.0 
1.04012 -0.201082 0.0 
0.955769 0.303409 0.0 
0.906428 0.282221 0.0 
1.00927 -0.00139706 0.0 
0.116146 0.0353558 0.0 
0.069883 -0.0202146 0.0 
2.4897e-150 5.92169e-153 0.0 
1.01564 0.00307049 0.0 
0.961319 -0.00280778 0.0 
1.08763 0.109832 0.0 
0.837551 -0.419709 0.0 
0.881199 -0.0137403 0.0 
0.784692 -0.277433 0.0 
0.836738 -0.418641 0.0 
0.836971 0.0394461 0.0 
0.0483068 -0.016792 0.0 
0 0 0.0 
0.0257428 -0.000602912 0.0 
1.07003 -0.0287703 0.0 
0.00497467 0.000240316 0.0 
0.999619 -0.00048763 0.0 
0.79203 0.00756017 0.0 