<VTKFile type="UnstructuredGrid" version="0.1" byte_order="LittleEndian">
  <UnstructuredGrid>
    <Piece NumberOfPoints="12560" NumberOfCells="24965">
      <Points>
        <DataArray type = "Float64" NumberOfComponents="3" format="ascii">
0 0 0.0 
14 0 0.0 
14 8 0.0 
0 8 0.0 
4.38439 3.94377 0.0 
12.8057 1.94595 0.0 
0.483697 5.24337 0.0 
4.85608 4.02277 0.0 
4.22181 4.06276 0.0 
4.55557 3.91422 0.0 
4.25406 3.96654 0.0 
4.00912 3.99614 0.0 
4.08596 3.93674 0.0 
3.80163 4.11056 0.0 
4.4023 3.95598 0.0 
6.54835 4.20005 0.0 
4.31481 2.21348 0.0 
4.05477 4.02613 0.0 
4.1396 3.96826 0.0 
8.29677 5.77683 0.0 
4.07347 4.06874 0.0 
4.14958 3.96708 0.0 
4.00922 3.99881 0.0 
4.02803 4.04844 0.0 
4.03055 3.85667 0.0 
4.01927 3.99345 0.0 
3.47088 5.22946 0.0 
6.11096 3.94188 0.0 
10.4898 1.15433 0.0 
3.98196 3.98783 0.0 
5.00749 4.02107 0.0 
4.36023 4.05917 0.0 
4.07179 3.7928 0.0 
4.03416 4.05264 0.0 
4.12387 3.9193 0.0 
5.00166 3.98677 0.0 
5.57889 4.10824 0.0 
4.62599 3.98046 0.0 
13.5361 3.50025 0.0 
4.62706 4.03887 0.0 
6.5797 7.25669 0.0 
4.20612 4.06612 0.0 
5.00555 4.00538 0.0 
3.99967 4.0114 0.0 
0.845905 6.52685 0.0 
4.62278 3.95949 0.0 
4.16901 3.96832 0.0 
4.22445 4.06792 0.0 
14 6.11123 0.0 
4.37859 3.97099 0.0 
3.96293 3.99513 0.0 
3.99877 3.96428 0.0 
5.17999 4.20915 0.0 
4.45439 3.97313 0.0 
3.99922 3.99464 0.0 
4.61719 3.98195 0.0 
4.64672 4.01778 0.0 
4.79232 4.03402 0.0 
14 5.21618 0.0 
8.55881 8 0.0 
4.95152 4.00971 0.0 
3.62181 3.35787 0.0 
4.62071 4.05423 0.0 
4.00692 3.9872 0.0 
4.01308 4.00992 0.0 
4.38183 3.95813 0.0 
11.9759 2.35995 0.0 
4.27441 4.05318 0.0 
4.23725 3.95116 0.0 
10.6129 3.71691 0.0 
5.00128 3.99352 0.0 
4.18141 4.05241 0.0 
4.03555 4.04122 0.0 
5.04845 4.04311 0.0 
4.02036 4.05209 0.0 
4.22018 3.96739 0.0 
3.99309 4.00997 0.0 
4.0175 3.98491 0.0 
4.17447 4.07538 0.0 
4.45126 3.97347 0.0 
4.04636 4.02869 0.0 
10.1833 0.248119 0.0 
4.02875 4.04115 0.0 
3.98296 3.9611 0.0 
11.717 4.54427 0.0 
3.7391 1.31631 0.0 
1.26284 5.53443 0.0 
4.52158 3.97624 0.0 
4.02495 4.02882 0.0 
4.02642 3.88613 0.0 
4.70196 4.04609 0.0 
5.1819 4.12653 0.0 
3.9863 3.99851 0.0 
4.05776 4.03743 0.0 
4.12124 3.98374 0.0 
4.13798 3.96734 0.0 
4.15544 3.92346 0.0 
4.97365 4.00646 0.0 
4.01497 4.00719 0.0 
4.00263 3.92682 0.0 
4.02244 4.02798 0.0 
4.02586 4.07451 0.0 
5.00771 4.00059 0.0 
5.0905 2.15481 0.0 
3.99804 4.00956 0.0 
5.01331 3.98969 0.0 
4.48802 4.06521 0.0 
5.03702 4.00708 0.0 
4.12754 3.92728 0.0 
4.59462 4.14801 0.0 
4.79296 3.98918 0.0 
4.9822 4.01335 0.0 
4.12884 4.06215 0.0 
4.67052 4.12295 0.0 
4.05147 4.01969 0.0 
4.44197 4.06635 0.0 
4.24611 4.04104 0.0 
3.99252 4.00665 0.0 
4.00947 4.02943 0.0 
3.99441 4.00023 0.0 
4.00359 4.03909 0.0 
5.00031 3.99904 0.0 
4.23552 4.06643 0.0 
4.05784 3.98854 0.0 
3.84288 3.97339 0.0 
7.04095 6.9955 0.0 
4.10081 3.94382 0.0 
4.45213 4.06535 0.0 
3.94589 4.0225 0.0 
5.00368 4.02219 0.0 
10.7396 5.64099 0.0 
4.99689 3.99053 0.0 
4.17928 4.0787 0.0 
11.8016 5.08016 0.0 
4.999 3.9997 0.0 
3.9818 4.03131 0.0 
3.96476 4.03852 0.0 
4.10302 3.99168 0.0 
3.97233 4.04194 0.0 
10.8521 3.69367 0.0 
1.06014 3.31576 0.0 
4.00621 4.04562 0.0 
6.33774 3.85123 0.0 
4.83753 4.02805 0.0 
3.98952 3.89894 0.0 
4.11424 3.99572 0.0 
4.64639 3.98169 0.0 
4.02898 3.97714 0.0 
8.52848 7.37276 0.0 
4.6555 0.722428 0.0 
4.09476 4.08011 0.0 
4.10245 4.05195 0.0 
4.78124 4.01091 0.0 
13.2653 2.91651 0.0 
4.00756 4.02287 0.0 
2.47172 1.361 0.0 
4.23103 3.92099 0.0 
4.17857 3.91238 0.0 
4.98948 3.9993 0.0 
4.01575 3.99896 0.0 
4.36293 3.97098 0.0 
4.38842 3.98771 0.0 
10.0865 7.39187 0.0 
4.10608 4.02928 0.0 
4.50985 7.40044 0.0 
5.51379 7.4427 0.0 
4.15942 4.03647 0.0 
7.25885 4.21713 0.0 
5.05919 4.01855 0.0 
2.15923 7.15628 0.0 
3.26833 4.20055 0.0 
4.81503 4.03129 0.0 
4.09864 4.07197 0.0 
5.01225 4.00853 0.0 
7.18887 6.80823 0.0 
1.24078 0.550265 0.0 
9.10545 7.45594 0.0 
2.38032 0.204862 0.0 
4.01517 4.03055 0.0 
3.99882 3.99972 0.0 
4.98761 4.00402 0.0 
3.99908 3.98836 0.0 
4.04909 3.9604 0.0 
4.81398 3.9896 0.0 
4.1339 4.08576 0.0 
4.1938 4.04426 0.0 
4.21507 3.9482 0.0 
3.91629 4.75047 0.0 
4.97222 4.02124 0.0 
4.16408 7.74165 0.0 
4.0915 3.91751 0.0 
13.3499 2.14382 0.0 
4.02732 3.98133 0.0 
11.9473 3.59927 0.0 
5.1327 4.04445 0.0 
4.47207 3.973 0.0 
4.04978 4.03438 0.0 
4.10016 3.95849 0.0 
6.09399 4.15651 0.0 
3.9901 3.98452 0.0 
4.97439 3.96659 0.0 
3.99686 4.00472 0.0 
4.00675 3.9944 0.0 
5.02294 4.01619 0.0 
4.32394 3.96959 0.0 
4.6447 4.05152 0.0 
4.49801 3.96723 0.0 
4.67895 4.01774 0.0 
3.99899 4.01393 0.0 
4.0488 4.03914 0.0 
4.04723 3.95307 0.0 
13.2253 0 0.0 
9.50167 4.49149 0.0 
4.73697 3.98615 0.0 
4.04578 3.97362 0.0 
5.08198 4.04957 0.0 
5.02947 4.00625 0.0 
4.07912 4.02843 0.0 
5.00847 4.01115 0.0 
2.60072 4.65597 0.0 
4.08711 3.98632 0.0 
4.3223 4.07403 0.0 
5.00397 3.99911 0.0 
5.0027 3.99265 0.0 
3.98048 4.05294 0.0 
4.06956 4.04011 0.0 
4.13386 4.04638 0.0 
3.98816 4.01224 0.0 
4.50982 3.96368 0.0 
0.848755 1.28674 0.0 
12.2975 3.38552 0.0 
3.99752 4.02893 0.0 
4.01884 3.99521 0.0 
4.01748 3.97335 0.0 
3.98628 3.99582 0.0 
13.1329 4.03521 0.0 
4.11823 4.03095 0.0 
4.39932 4.17107 0.0 
4.74212 3.98606 0.0 
4.5965 4.06302 0.0 
4.08084 4.04938 0.0 
9.55669 5.91713 0.0 
4.99743 4.01846 0.0 
4.48177 3.97423 0.0 
4.3171 4.12404 0.0 
4.02848 4.02971 0.0 
3.93549 3.94275 0.0 
4.77225 3.96575 0.0 
4.01932 3.98151 0.0 
5.10311 4.0306 0.0 
4.99939 3.99739 0.0 
4.00814 3.98907 0.0 
4.03066 4.0465 0.0 
4.18327 4.04509 0.0 
4.30554 4.03872 0.0 
4.18405 4.07138 0.0 
4.09111 4.05068 0.0 
9.4831 3.49413 0.0 
3.97909 4.02017 0.0 
4.53454 4.0614 0.0 
3.97185 4.00557 0.0 
4.3264 3.87727 0.0 
3.9961 4.02386 0.0 
5.01586 4.00977 0.0 
4.36108 4.08181 0.0 
5.18793 4.05304 0.0 
3.98111 4.00805 0.0 
4.23166 4.06934 0.0 
3.99352 3.97666 0.0 
0.747562 5.69493 0.0 
4.25787 3.89814 0.0 
4.01707 3.9715 0.0 
4.27398 3.96856 0.0 
8.28094 0.596167 0.0 
3.98586 3.96653 0.0 
4.02364 1.36307 0.0 
11.3109 3.9311 0.0 
4.91337 3.99459 0.0 
4.00513 3.99 0.0 
4.99696 4.01379 0.0 
4.02402 4.04636 0.0 
4.14408 3.96694 0.0 
3.99249 4.05621 0.0 
4.06133 4.06985 0.0 
5.04267 4.00787 0.0 
3.99417 4.04189 0.0 
7.6181 7.09785 0.0 
4.71441 7.15979 0.0 
3.99997 3.99241 0.0 
4.41092 4.08744 0.0 
4.35477 3.97056 0.0 
3.98918 4.03714 0.0 
6.02554 0.627646 0.0 
4.01059 4.0357 0.0 
0.206973 1.52205 0.0 
4.27012 4.05517 0.0 
4.31039 3.96989 0.0 
4.00056 4.04248 0.0 
4.16297 4.05828 0.0 
5.02611 4.00685 0.0 
3.9896 4.00463 0.0 
4.88959 4.0683 0.0 
3.98613 3.98439 0.0 
11.9981 0 0.0 
4.00273 4.04763 0.0 
4.02428 4.00868 0.0 
4.21093 4.05482 0.0 
5.00674 4.00102 0.0 
4.58121 3.97784 0.0 
4.19395 3.96768 0.0 
3.98643 3.99986 0.0 
4.56409 3.94817 0.0 
3.97296 3.98273 0.0 
3.99581 3.98523 0.0 
4.15044 3.95788 0.0 
4.1209 4.04182 0.0 
3.98481 4.00073 0.0 
3.97761 4.0047 0.0 
8.39153 6.28241 0.0 
4.60684 3.98035 0.0 
4.11077 4.06077 0.0 
3.98558 4.00796 0.0 
12.3597 2.97618 0.0 
3.99483 4.02144 0.0 
5.04696 4.06971 0.0 
4.4028 4.09692 0.0 
4.14077 3.99272 0.0 
4.00251 4.00671 0.0 
9.04276 5.96039 0.0 
4.55397 3.97809 0.0 
3.99742 4.04784 0.0 
5.00018 3.98426 0.0 
4.79522 3.98826 0.0 
4.00295 4.01587 0.0 
4.27037 4.11663 0.0 
4.61915 3.96975 0.0 
4.41438 4.06783 0.0 
3.97593 3.95584 0.0 
4.02241 4.04141 0.0 
3.9487 4.03134 0.0 
4.02972 4.05235 0.0 
4.11002 3.98431 0.0 
4.01777 4.04818 0.0 
4.83248 3.99028 0.0 
4.16418 4.04914 0.0 
4.0266 3.96232 0.0 
9.17524 4.56271 0.0 
4.10695 3.94953 0.0 
13.0064 4.46872 0.0 
4.05843 3.98045 0.0 
4.28117 3.92206 0.0 
4.03778 3.99834 0.0 
4.61925 3.97956 0.0 
3.82466 3.90972 0.0 
4.27242 3.94793 0.0 
4.98817 4.01929 0.0 
3.95357 4.06538 0.0 
4.71783 4.04333 0.0 
4.20096 4.03236 0.0 
4.06423 3.95843 0.0 
4.35722 4.02378 0.0 
4.7857 3.97052 0.0 
4.00572 3.98505 0.0 
4.08502 3.96781 0.0 
10.7084 2.37312 0.0 
1.34309 2.0476 0.0 
3.99904 3.97967 0.0 
3.94862 4.04213 0.0 
4.78561 4.0974 0.0 
5.00079 3.98878 0.0 
4.02389 3.98715 0.0 
4.64988 4.05192 0.0 
4.63537 3.98127 0.0 
4.03335 3.76255 0.0 
8.94038 7.70202 0.0 
2.33056 5.57699 0.0 
7.47513 4.12069 0.0 
7.4189 4.17354 0.0 
8.66724 7.12549 0.0 
4.24288 0.380531 0.0 
10.8478 4.42307 0.0 
5.00794 4.01633 0.0 
3.97614 4.01755 0.0 
4.24333 3.96739 0.0 
5.46984 4.17168 0.0 
4.74537 4.04069 0.0 
9.15388 3.83278 0.0 
4.14459 4.05741 0.0 
4.05996 4.02956 0.0 
4.0725 4.06182 0.0 
4.95743 4.00956 0.0 
4.68873 4.04701 0.0 
8.98125 6.17249 0.0 
4.7713 3.97504 0.0 
5.15718 4.00143 0.0 
5.04506 4.05426 0.0 
3.99463 4.03164 0.0 
4.95856 4.00938 0.0 
4.64114 3.98136 0.0 
4.02676 4.02752 0.0 
4.32313 4.06074 0.0 
1.5342 5.64886 0.0 
4.51685 4.17493 0.0 
11.9413 8 0.0 
4.37519 3.97041 0.0 
4.03831 3.95277 0.0 
7.4175 3.97669 0.0 
4.28981 4.11298 0.0 
4.63962 4.05214 0.0 
4.02139 3.99207 0.0 
4.00032 4.00368 0.0 
4.01978 4.02634 0.0 
4.41826 3.97266 0.0 
4.73388 4.04159 0.0 
4.01682 3.98064 0.0 
13.1372 8 0.0 
3.99511 3.99395 0.0 
5.03165 4.01788 0.0 
4.14347 4.06123 0.0 
0 2.31373 0.0 
4.89135 4.15887 0.0 
4.15854 4.05966 0.0 
4.30003 3.96904 0.0 
3.97954 4.04522 0.0 
13.4854 0 0.0 
3.98276 4.03655 0.0 
3.97716 3.98171 0.0 
3.98686 4.01708 0.0 
5.00841 3.97606 0.0 
4.02944 6.04289 0.0 
4.99491 4.00642 0.0 
4.04122 3.94064 0.0 
4.096 3.95606 0.0 
4.01897 4.02121 0.0 
3.97814 4.00223 0.0 
4.01842 3.9913 0.0 
4.18919 3.9015 0.0 
4.05469 3.98217 0.0 
9.74613 4.12404 0.0 
4.80471 4.03287 0.0 
9.52973 2.5616 0.0 
4.00418 3.99108 0.0 
3.70034 4.3237 0.0 
4.54145 3.97769 0.0 
4.0703 4.01847 0.0 
5.01338 4.01449 0.0 
1.32075 0.258254 0.0 
4.73542 4.04032 0.0 
4.99198 4.01221 0.0 
4.75022 3.98734 0.0 
8.51121 4.33185 0.0 
12.1347 7.75548 0.0 
4.40894 4.05264 0.0 
4.01283 3.98642 0.0 
4.71908 4.04467 0.0 
3.97838 3.93009 0.0 
4.43224 3.97258 0.0 
5.0336 4.03132 0.0 
0.42318 6.33854 0.0 
4.00773 3.97774 0.0 
4.60653 4.05515 0.0 
3.993 4.0076 0.0 
3.9831 3.98331 0.0 
4.2671 4.04381 0.0 
4.35632 4.06841 0.0 
5.01057 4.00639 0.0 
4.09373 3.96958 0.0 
4.78467 4.03519 0.0 
4.10674 4.05498 0.0 
5.01715 4.01877 0.0 
5.0074 4.01223 0.0 
4.23838 3.96736 0.0 
[...]
<PointData>
  <DataArray type = "Float64" Name="Vitesse" NumberOfComponents="3" format="ascii">
1 0 0.0 
1.00753 0 0.0 
1.00608 0 0.0 
1 0 0.0 
0.441573 0.00481296 0.0 
1.00889 0.000148563 0.0 
0.999967 0.000645058 0.0 
-8.24124e-23 6.25983e-24 0.0 
1.37753e-306 2.80877e-307 0.0 
0.799018 0.00776021 0.0 
0.0290529 0.000704638 0.0 
0 0 0.0 
1.0507 -0.184502 0.0 
0.921302 0.0371392 0.0 
0.240326 0.00548523 0.0 
0.995086 -0.00749982 0.0 
1.01083 -0.00725499 0.0 
0 0 0.0 
0.000154488 -3.2586e-07 0.0 
1.00939 -0.0016582 0.0 
0.951295 0.279794 0.0 
0.0336939 -0.00208387 0.0 
0 0 0.0 
0.837031 0.36031 0.0 
1.0033 -0.148161 0.0 
0 0 0.0 
1.00431 0.0156043 0.0 
0.68291 0.00823826 0.0 
1.00834 0.000173325 0.0 
0.590262 -0.22828 0.0 
0.0596002 -0.0182969 0.0 
0 0 0.0 
1.02597 -0.107133 0.0 
0.869618 0.348807 0.0 
1.08878 -0.142522 0.0 
0.125979 0.0174499 0.0 
0.802306 -0.0239923 0.0 
0.00803834 0.00071574 0.0 
1.01253 -0.000441953 0.0 
4.5081e-139 -2.9306e-140 0.0 
1.00979 -0.000426845 0.0 
0.111379 0.00759226 0.0 
0.0210731 -0.0102973 0.0 
0.220794 0.220879 0.0 
1.0002 0.000977232 0.0 
0.247127 0.00903975 0.0 
4.49313e-05 -4.49177e-07 0.0 
0.112532 0.00971085 0.0 
1.00749 -0.000411864 0.0 
0.000969803 4.1063e-05 0.0 
0.670925 -0.0825174 0.0 
0.832372 -0.354187 0.0 
1.03008 -0.038324 0.0 
0.00885224 9.05036e-06 0.0 
0.192825 -0.293813 0.0 
-9.48796e-17 -7.36481e-18 0.0 
6.12426e-178 -2.86264e-179 0.0 
-1.01021e-17 2.69582e-19 0.0 
1.00707 -0.00135459 0.0 
1.00797 0 0.0 
2.80014e-05 -4.48489e-06 0.0 
0.995119 -0.0241647 0.0 
0.00519897 -0.000383946 0.0 
0.30244 -0.212576 0.0 
0 0 0.0 
0.202263 0.0046267 0.0 
1.00899 0.000334021 0.0 
0 0 0.0 
0.366032 -0.00513281 0.0 
1.00144 -0.0019399 0.0 
0.065002 0.0141507 0.0 
1.32971e-84 1.6347e-85 0.0 
0.662442 0.278582 0.0 
0.197475 -0.0264169 0.0 
0.839185 0.349738 0.0 
2.18087e-05 -6.5958e-07 0.0 
0.31816 0.13332 0.0 
-5.29909e-44 1.43421e-44 0.0 
0.564283 0.0812308 0.0 
0.00421843 0.0011964 0.0 
4.97297e-82 1.8204e-82 0.0 
1.00805 4.16608e-05 0.0 
0.733388 0.335412 0.0 
0.796953 -0.26118 0.0 
1.01153 0.000260579 0.0 
1.00574 -0.00366331 0.0 
0.999946 0.00202688 0.0 
0.00556949 0.00120901 0.0 
0.306949 0.165279 0.0 
0.996872 -0.177699 0.0 
0.00682301 -0.00112024 0.0 
0.87171 -0.0444958 0.0 
0.43517 -0.147247 0.0 
-4.52174e-43 -1.51697e-43 0.0 
0 0 0.0 
0.0393445 -0.00172147 0.0 
1.03685 -0.103496 0.0 
0.00172923 -0.000170376 0.0 
0 0 0.0 
0.937263 -0.234431 0.0 
0.332891 0.177211 0.0 
0.903417 0.289645 0.0 
0.0294884 0.000950338 0.0 
1.01305 -0.00283911 0.0 
0.197209 0.181392 0.0 
0.106591 0.0188326 0.0 
0.0167436 -0.000785721 0.0 
0.0609485 -0.00166036 0.0 
1.04933 -0.129912 0.0 
1.03918 -0.0126052 0.0 
0 0 0.0 
0.0226305 -0.00440879 0.0 
0.39596 0.072813 0.0 
0.845901 -0.0288171 0.0 
0 0 0.0 
4.28408e-05 4.43825e-07 0.0 
1e-307 0 0.0 
0.282699 0.0468217 0.0 
0.618372 0.369232 0.0 
0.208656 -0.1573 0.0 
0.713946 0.336164 0.0 
0.00820901 0.00549896 0.0 
0.0396957 4.71146e-05 0.0 
0 0 0.0 
0.887491 -0.0260882 0.0 
1.00965 -0.000803492 0.0 
0.914264 -0.130344 0.0 
3.32579e-07 -4.18289e-09 0.0 
0.74126 0.0344426 0.0 
0.0629553 -0.0176969 0.0 
1.00866 -0.000661466 0.0 
0.0892783 0.0110808 0.0 
0.639311 0.0916435 0.0 
1.00865 -0.000770927 0.0 
9.32735e-09 2.16118e-09 0.0 
0.646503 0.182334 0.0 
0.723838 0.121498 0.0 
0 0 0.0 
0.72139 0.156232 0.0 
1.00738 0.000399613 0.0 
0.999466 -0.000562697 0.0 
0.761918 0.327716 0.0 
0.959981 0.00571738 0.0 
0.00208657 -0.000241434 0.0 
0.944469 -0.17636 0.0 
1e-307 0 0.0 
0.00631923 0.000812498 0.0 
0.29677 -0.0958677 0.0 
1.00817 -0.000428314 0.0 
1.0075 -0.00139639 0.0 
1.00704 0.255878 0.0 
0.188647 0.0422989 0.0 
-4.14903e-214 6.29082e-216 0.0 
1.00901 0.000230067 0.0 
0.473543 0.328153 0.0 
1.00191 -0.0026671 0.0 
0.946436 -0.0512797 0.0 
1.07377 -0.0950351 0.0 
2.00497e-06 1.41767e-07 0.0 
0 0 0.0 
1.18951e-05 2.17073e-06 0.0 
1.80042e-113 1.49682e-114 0.0 
1.00732 -0.000258934 0.0 
0 0 0.0 
1.00854 0.00129298 0.0 
1.0098 0.000302953 0.0 
0 0 0.0 
0.995235 -0.0044658 0.0 
0.0872952 -0.00937277 0.0 
1.00202 0.00172698 0.0 
0.981301 0.00749351 0.0 
0.00199229 -0.000196055 0.0 
0.906385 0.225575 0.0 
0.0313512 -0.0106144 0.0 
1.00971 -0.00101186 0.0 
1.0005 -0.000464695 0.0 
1.00778 -0.000313439 0.0 
1.00202 -0.000373234 0.0 
0.600088 0.338126 0.0 
0.0493796 -0.116889 0.0 
0.00187009 -0.000273361 0.0 
0.47886 -0.445426 0.0 
0.824037 -0.203792 0.0 
0.00586397 0.000488813 0.0 
0.979828 0.197501 0.0 
0 0 0.0 
0.461155 -0.0130629 0.0 
1.01186 0.0347541 0.0 
0.0441572 -0.00692297 0.0 
1.00739 0.000642067 0.0 
1.0858 -0.179451 0.0 
1.00876 0.000225938 0.0 
1.23472e-05 -4.764e-06 0.0 
1.01265 0.000144177 0.0 
0.255941 -0.0228148 0.0 
0.0195835 0.000473657 0.0 
-6.87775e-43 -1.65974e-43 0.0 
0.478792 -0.0519347 0.0 
0.951453 -0.0137012 0.0 
0.594638 -0.346652 0.0 
0.302555 0.0183356 0.0 
0.118311 0.028052 0.0 
0 0 0.0 
0.0523846 -0.0139442 0.0 
0.000272492 2.08484e-05 0.0 
0.00165372 -3.16889e-05 0.0 
0.105292 0.00408929 0.0 
0 0 0.0 
0.31424 0.267255 0.0 
0.323011 0.107953 0.0 
0.991485 -0.260521 0.0 
1.00762 0 0.0 
1.00871 -0.00130842 0.0 
0.00457356 0.000807787 0.0 
0.223113 -0.0425812 0.0 
0.260886 -0.0290877 0.0 
0.0534076 -0.00212664 0.0 
0 0 0.0 
0.0314798 -0.0143585 0.0 
0.995429 0.0063341 0.0 
0 0 0.0 
0.128378 0.00228043 0.0 
0.0237377 0.00472404 0.0 
0.0735857 0.0158005 0.0 
0.759857 0.198923 0.0 
6.83518e-06 1.59005e-06 0.0 
0 0 0.0 
0.433242 0.11133 0.0 
0.156344 0.00570825 0.0 
1.00017 -0.000661055 0.0 
1.00989 0.00105339 0.0 
0.606597 0.314534 0.0 
0 0 0.0 
0.769467 -0.338342 0.0 
0.460394 -0.192054 0.0 
0.842056 0.00062581 0.0 
0 0 0.0 
1.12815 0.0489973 0.0 
0.00748814 0.000612293 0.0 
0.0748793 -0.00564094 0.0 
0.328111 0.0895906 0.0 
1.00869 -0.000990089 0.0 
0.0473487 -0.0139773 0.0 
0.00856759 0.00114097 0.0 
1.04964 0.0740256 0.0 
0.25787 0.128707 0.0 
0.849827 -0.119489 0.0 
0.227731 0.00978008 0.0 
0.226051 -0.0912358 0.0 
0.157326 -0.0165274 0.0 
0.0257616 0.00667094 0.0 
4.44395e-64 -1.4184e-64 0.0 
0.814365 0.35181 0.0 
0 0 0.0 
-1.71167e-162 2.21813e-164 0.0 
0.388695 0.0510166 0.0 
0.259074 0.0578722 0.0 
1.00811 0.00217386 0.0 
0.58419 0.114472 0.0 
0.00646764 -0.000244598 0.0 
0.595544 -0.0254843 0.0 
1.08417 -0.0420857 0.0 
0.541482 0.29949 0.0 
0.0362509 -0.0104036 0.0 
0.28372 0.00240484 0.0 
0.343896 -0.0254831 0.0 
0.50346 0.00983632 0.0 
0.139788 0.00959081 0.0 
0.708717 -0.378221 0.0 
1.00002 0.00107971 0.0 
1.07265 -0.0586801 0.0 
0.828651 -0.364367 0.0 
0.000218169 2.36926e-05 0.0 
1.00857 0.000167958 0.0 
0.772191 -0.286804 0.0 
1.00679 -0.00371275 0.0 
0.832326 0.00155894 0.0 
0.00461726 0.000326071 0.0 
0.160537 -0.14023 0.0 
0.0328608 -0.0116817 0.0 
0.818302 0.365958 0.0 
0.0447885 -0.00137608 0.0 
0.780008 0.243712 0.0 
0.96976 0.303622 0.0 
0.0661107 -0.0017382 0.0 
0.710991 0.270914 0.0 
1.009 -0.000733689 0.0 
1.00932 0.00155531 0.0 
0.276389 -0.346936 0.0 
0.378087 -0.000922404 0.0 
0.000206387 1.5743e-05 0.0 
0.676019 0.241365 0.0 
1.00894 -0.000244526 0.0 
0.706426 0.375235 0.0 
1.00001 -0.000171248 0.0 
0 0 0.0 
3.22626e-31 1.66884e-32 0.0 
0.726935 0.308349 0.0 
2.44474e-07 9.00267e-09 0.0 
0.0486781 -0.00349867 0.0 
0.344608 -0.024124 0.0 
0.322301 -0.0278057 0.0 
0.608056 -0.292167 0.0 
1.00775 0 0.0 
0.761698 0.305276 0.0 
0 0 0.0 
-6.64141e-284 -1.31783e-284 0.0 
0.0257808 -0.000562282 0.0 
0.0148838 0.00142802 0.0 
0.000230864 -7.16385e-07 0.0 
0.423927 -0.123618 0.0 
0.378185 0.0104318 0.0 
0.673782 -0.184019 0.0 
0.578945 -0.433499 0.0 
0.313376 -0.016894 0.0 
6.53079e-49 1.25358e-49 0.0 
0.448202 -0.100279 0.0 
0.540666 -0.0339748 0.0 
1.009 -0.00123576 0.0 
6.79586e-05 8.88459e-06 0.0 
0.496215 0.106858 0.0 
0.439038 0.0252605 0.0 
1.01041 -1.33901e-05 0.0 
0.507583 0.278394 0.0 
0.415926 -0.0388213 0.0 
0.568791 0.00581426 0.0 
1e-307 0 0.0 
-2.32983e-139 -1.12463e-139 0.0 
1.00889 -0.00117306 0.0 
0.000119689 1.86805e-05 0.0 
0.75002 0.279178 0.0 
0.148386 0.0172565 0.0 
0.0103492 0.000146754 0.0 
0.307639 0.272657 0.0 
1.04219 0.0988467 0.0 
0.123501 0.00529093 0.0 
6.12196e-06 1.59608e-07 0.0 
0.812448 -0.223342 0.0 
0.768309 0.366978 0.0 
0.74675 0.0634662 0.0 
0.864396 0.354681 0.0 
0 0 0.0 
0.814287 0.356836 0.0 
0.00846067 0.000894142 0.0 
-1.08608e-102 -2.24211e-103 0.0 
0.94325 -0.334526 0.0 
1.0088 -0.001595 0.0 
0.744334 -0.089772 0.0 
1.01061 -0.000163861 0.0 
-5.32838e-265 1.21528e-265 0.0 
0.869375 -0.0281735 0.0 
0 0 0.0 
0.0151741 0.0005415 0.0 
0.916572 -0.045304 0.0 
0.409152 -0.00318706 0.0 
0.0458177 -0.0097789 0.0 
0.810127 0.127407 0.0 
8.64457e-05 -1.12895e-05 0.0 
-1.31111e-238 -1.69589e-239 0.0 
0.750129 -0.148992 0.0 
-3.45746e-229 -4.51531e-230 0.0 
0.182715 0.00813893 0.0 
0.496576 -0.354308 0.0 
0.174851 -0.0160826 0.0 
1.0091 0.000311055 0.0 
1.00011 -0.001538 0.0 
0.696665 -0.448708 0.0 
0.767489 0.0875493 0.0 
0.585462 -0.0376672 0.0 
0.107466 0.0160511 0.0 
0 0 0.0 
0.00864019 -0.000969336 0.0 
0.00468626 0.000412034 0.0 
1.00851 -0.0953986 0.0 
1.00782 -0.000181675 0.0 
1.00043 0.0052455 0.0 
0.858635 -0.00455943 0.0 
0.954167 -0.00389122 0.0 
1.00818 -0.00057415 0.0 
1.00634 -0.00085559 0.0 
1.011 -0.000918286 0.0 
0.0437363 -0.0168803 0.0 
0.590418 0.0807608 0.0 
0.0101365 0.000427668 0.0 
0.985539 -0.0294339 0.0 
0.00419108 -0.000699276 0.0 
0.943504 -0.000461894 0.0 
0.0826543 0.0106642 0.0 
0 0 0.0 
0.854482 0.255321 0.0 
0.00226536 -0.000314016 0.0 
0.00325475 -0.000238583 0.0 
1.00874 -0.00107335 0.0 
0.130013 0.00600271 0.0 
0.169408 0.00557852 0.0 
0.281966 -0.031599 0.0 
0.632635 0.28541 0.0 
0.00230771 -0.000424972 0.0 
0.00710238 0.000463331 0.0 
0.160621 0.0925516 0.0 
-1.41435e-32 -4.43924e-34 0.0 
1.00005 0.00266473 0.0 
1.11382 0.0118607 0.0 
1.00654 0 0.0 
0.0109736 0.000654414 0.0 
1.00973 -0.295072 0.0 
0.676308 0.000371418 0.0 
0.982034 0.0796766 0.0 
0.00334226 -0.00020493 0.0 
0 0 0.0 
0.00614069 0.00536908 0.0 
0.323708 0.168715 0.0 
-2.96628e-43 -2.70891e-44 0.0 
-5.50269e-20 6.60002e-22 0.0 
0.392935 -0.170052 0.0 
1.00627 0 0.0 
0.334827 -0.34888 0.0 
0.0631941 -0.0132309 0.0 
0.245427 0.037555 0.0 
1 0 0.0 
1.01667 -0.0440875 0.0 
0.0836749 0.0144933 0.0 
7.6374e-05 2.30892e-07 0.0 
0.727043 0.191294 0.0 
1.00759 0 0.0 
0.677747 0.199211 0.0 
0.665251 -0.216029 0.0 
0.500562 0.152402 0.0 
0.226575 0.0234763 0.0 
1.0105 0.00755873 0.0 
0.0132369 -0.00451521 0.0 
1.03609 -0.27332 0.0 
0.593692 -0.0734832 0.0 
7.40648e-75 3.67371e-75 0.0 
0.536627 -0.0622444 0.0 
0 0 0.0 
1.09286 -0.0935907 0.0 
0 0 0.0 
0.868427 -0.00305277 0.0 
0.0028807 -0.000492432 0.0 
1.00958 0.000391821 0.0 
0.142769 -0.12096 0.0 
0.972181 0.0386404 0.0 
1.68879e-05 1.86701e-06 0.0 
0 0 0.0 
0.0415418 -0.0152863 0.0 
1.00056 -0.000237768 0.0 
-5.40633e-43 1.2005e-44 0.0 
0.0255161 -0.00738418 0.0 
6.92335e-72 2.02202e-73 0.0 
1.00918 -0.00160926 0.0 
1.00656 -5.96631e-05 0.0 
0 0 0.0 
-8.39956e-28 2.68156e-28 0.0 
0.010377 -0.00118748 0.0 
0.887101 -0.200696 0.0 
0.00545248 0.000969224 0.0 
0.117487 -0.0215938 0.0 
1.00003 0.000516127 0.0 
0.744362 -0.428809 0.0 
1.97324e-05 -9.98143e-07 0.0 
0.282045 0.0770341 0.0 
0.630394 -0.261933 0.0 
-4.74337e-167 6.14687e-169 0.0 
-4.75068e-44 -1.89106e-45 0.0 
0.0283666 -0.00876531 0.0 
0.0578545 -0.00658258 0.0 
0.00183885 -5.53387e-05 0.0 
0.28914 0.0632908 0.0 
0.0554069 -0.017046 0.0 
0.0330784 -0.0151448 0.0 
0.00746523 0.000277854 0.0 
0.802022 -0.352334 0.0 
0 0 0.0 
5.48035e-07 5.75775e-08 0.0 
0 0 0.0 
0.565026 0.0525613 0.0 
1.0079 4.2551e-05 0.0 
0.0629508 0.0029633 0.0 
0.644989 -0.00902266 0.0 
0.898402 0.0068364 0.0 
0.0727864 -0.0310203 0.0 
0.89953 0.0013552 0.0 
1.00955 0.000139733 0.0 
-3.9136e-139 5.07159e-141 0.0 
0.485891 0.136877 0.0 
0.0908585 0.00431425 0.0 
1.00051 0.000591251 0.0 
-7.25991e-21 5.51505e-22 0.0 
1.01023 0.00137035 0.0 
0.00504411 -0.000751193 0.0 
1.00081 -0.00148929 0.0 
0 0 0.0 
0.117014 -0.0725137 0.0 
1.00005 0.00162743 0.0 
0.101824 -0.00792345 0.0 
0.96869 -0.342124 0.0 
0.00183393 -0.000180436 0.0 
0.614489 0.0704712 0.0 
0.159341 -0.183571 0.0 
0.850141 0.330847 0.0 
-3.60792e-151 3.01162e-152 0.0 
0.00416639 -0.000509479 0.0 
1.00922 0.000168199 0.0 
0.974854 0.174912 0.0 
1.00945 0.000275201 0.0 
0.561399 -0.20773 0.0 
0.806419 0.165722 0.0 
0.103928 -0.0238329 0.0 
0.246762 0.237805 0.0 
0.756234 0.213067 0.0 
1.01102 -0.00135717 0.0 
0.00627702 0.000340596 0.0 
1.00001 -0.000532406 0.0 
0.0324357 0.00412725 0.0 
0.614542 -0.0315325 0.0 
0.61628 -0.116599 0.0 
0.988429 -0.00599447 0.0 
0.000550445 -1.42835e-05 0.0 
1.00423 0.233787 0.0 
0.837773 0.026001 0.0 
0.883075 -0.033149 0.0 
0.158605 -0.252089 0.0 
0.0291972 0.00911998 0.0 
0.129323 -0.00574195 0.0 
0.44565 -0.0391405 0.0 
0 0 0.0 
0.851461 0.00224613 0.0 
0 0 0.0 
0.655779 0.00904246 0.0 
-5.29534e-42 -3.15233e-42 0.0 
0.843724 0.342427 0.0 
0.863355 -0.00281858 0.0 
0.969393 -0.00425242 0.0 
-1.09066e-236 -1.3968e-237 0.0 
0.742923 0.302481 0.0 
0.619246 0.0111032 0.0 
1.08996 -0.0453897 0.0 
0.0301502 -0.0131211 0.0 
0.00915249 -0.00138888 0.0 
0.0760906 0.0155485 0.0 
0.858842 -0.403013 0.0 
8.10686e-304 1.65298e-304 0.0 
1.00802 6.61017e-05 0.0 
1.01759 -0.028782 0.0 
2.66747e-56 -2.58063e-58 0.0 
-4.97722e-15 6.52506e-16 0.0 
0.776575 0.0640369 0.0 
0.676321 -0.367354 0.0 
1.00493 0.00113552 0.0 
0.593707 -0.143111 0.0 
0.925247 0.00128972 0.0 
0.154807 0.0451294 0.0 
0.923662 -0.28044 0.0 
-1.11605e-133 1.44627e-135 0.0 
1.00924 0.000223581 0.0 
1.00055 0.00429892 0.0 
0.071457 0.0062451 0.0 
0.00862299 0.00119112 0.0 
0.999951 -0.000487899 0.0 
1.14001e-75 1.13402e-76 0.0 
0 0 0.0 
0.0210542 -0.000103152 0.0 
0.00289944 0.000558323 0.0 
0.31165 -0.261774 0.0 
1.00498 -0.00288261 0.0 
-1.35617e-22 8.37518e-25 0.0 
0.470171 -0.0251807 0.0 
0.0370717 -0.00827625 0.0 
0.0189956 -0.0106086 0.0 
8.89928e-156 -4.25611e-157 0.0 
0.987703 -0.247963 0.0 
0.00585819 0.000694663 0.0 
0.0794614 -0.0183928 0.0 
0.154991 -0.0554778 0.0 
0.0633936 0.0320191 0.0 
0.694184 -0.1596 0.0 
0 0 0.0 
0.0473984 -0.000554402 0.0 
0.91547 -0.0400029 0.0 
0 0 0.0 
0.495331 0.236415 0.0 
0.000108131 5.75609e-06 0.0 
0.555681 -0.039386 0.0 
0.624019 0.00268471 0.0 
0.883817 -0.0145638 0.0 
0.105444 -0.0251522 0.0 
1.04658 -0.0413791 0.0 
0.000756257 -5.78865e-05 0.0 
0.998874 -0.000146489 0.0 
0.20997 0.096331 0.0 
1.00124 -0.000401726 0.0 
0 0 0.0 
0.782637 -0.231236 0.0 
1.01181 0.000156212 0.0 
0.114691 0.140509 0.0 
0.0234027 -0.0045049 0.0 
0.00623119 -0.000565023 0.0 
3.28274e-130 9.68985e-131 0.0 
0.0181365 0.00169489 0.0 
0.0793607 -0.0101526 0.0 
0.96799 -0.0247093 0.0 
-1.46644e-24 8.37451e-26 0.0 
1.00983 0.00079826 0.0 
1.00388 0.00268733 0.0 
0.0408472 -0.000263977 0.0 
0.715543 -0.00064872 0.0 
0.0364238 0.00707653 0.0 
0.906228 -0.39222 0.0 
1.00778 0.00011248 0.0 
0.839071 -0.33309 0.0 
0.121257 0.0110913 0.0 
0 0 0.0 
0.140786 0.00395875 0.0 
1.01512 0.0024617 0.0 
0.0501868 0.00737802 0.0 
0.784417 -0.276651 0.0 
1.0082 -0.000711749 0.0 
0.393003 0.244698 0.0 
0.0836999 0.0068511 0.0 
0.0185068 0.000263879 0.0 
0.155682 0.0223555 0.0 
0.371732 -0.328139 0.0 
0.226941 0.203475 0.0 
1.00775 -0.000527057 0.0 
0.965017 0.285586 0.0 
1.01089 0.00215017 0.0 
0.751017 -0.00244684 0.0 
1.08793 0.110047 0.0 
0.83649 -0.420041 0.0 
0.956798 -0.0386315 0.0 
6.31467e-117 3.1321e-117 0.0 
0.835271 -0.419194 0.0 
0.811188 -0.188982 0.0 
0.0481061 -0.016805 0.0 
0.164895 0.0101668 0.0 
0.0338519 0.000814591 0.0 
0.999953 0.00142937 0.0 
0 0 0.0 
1.00999 0.00198874 0.0 
0.00509161 0.000417954 0.0 
0.00953666 0.00113573 0.0 
0.402841 -0.24265 0.0 
0.999985 -0.000597233 0.0 
0.872669 0.00414435 0.0 
0.57165 0.0114385 0.0 
0.653117 -0.353156 0.0 
0.130288 -0.0200027 0.0 
0.123974 0.0200729 0.0 
0.00420185 -0.000154793 0.0 
0.997738 -0.00141105 0.0 
0.999909 -0.000717553 0.0 
0.63333 -0.0259723 0.0 
0.910163 -0.0270614 0.0 
0.379898 0.280634 0.0 
0 0 0.0 
0.51644 -0.0775597 0.0 
0.843196 0.149759 0.0 
1.11808 0.139441 0.0 
1.00425 -0.00414206 0.0 
-7.38716e-23 -7.10511e-25 0.0 
0.0177314 0.00123086 0.0 
0.0801283 0.00706603 0.0 
0.203963 0.0247053 0.0 
0.0150465 0.000966138 0.0 
0.998803 0.00118176 0.0 
0 0 0.0 
0.10952 0.00364884 0.0 
0.568179 -0.0640266 0.0 
0.96355 -0.00611832 0.0 
0.0900996 0.0179255 0.0 
-6.20881e-16 -5.41317e-17 0.0 
0.984912 0.0347198 0.0 
0.0207722 -0.012235 0.0 
1.01718 0.229083 0.0 
0.743647 -0.129519 0.0 
0 0 0.0 
1.00789 0 0.0 
1.0095 -0.000318097 0.0 
0.372798 -0.0366403 0.0 
1.00855 0.000245396 0.0 
1.11646 0.0979345 0.0 
0.141981 0.0637192 0.0 
1.03733e-06 -1.33017e-07 0.0 
0.251802 0.138747 0.0 
1.00808 0.000128094 0.0 
0.999207 -0.00156214 0.0 
0.547098 -0.397657 0.0 
0.345227 0.0190203 0.0 
0.0897533 0.00424976 0.0 
0 0 0.0 
0.0965571 0.0158103 0.0 
1.00037 0.0014184 0.0 
0.0166826 -0.00134536 0.0 
0.0628309 0.00619994 0.0 
1.00863 1.34872e-184 0.0 
0.080212 -0.0121492 0.0 
0 0 0.0 
1.00908 -0.00129061 0.0 
1.00908 -0.000340485 0.0 
1.00819 0.000112847 0.0 
0.70084 -0.0385192 0.0 
0.837212 0.237504 0.0 
0.628982 0.154812 0.0 
1.00707 -0.000271263 0.0 
0 0 0.0 
0.214599 0.00551009 0.0 
0.00537785 -0.000401443 0.0 
0.0572881 0.00964559 0.0 
0.999249 0.00133573 0.0 
1.00919 -0.00701871 0.0 
-1.4315e-235 6.7975e-237 0.0 
1.17783e-118 1.13167e-119 0.0 
0.755405 0.349336 0.0 
0.349043 -0.0187581 0.0 
0 0 0.0 
1.05192 -0.0487525 0.0 
0.00361382 -0.00043896 0.0 
0.696671 0.0665922 0.0 
0.999686 -0.00197835 0.0 
0.875584 0.328204 0.0 
1.03372 -0.00161447 0.0 
1.00231 0.00490497 0.0 
0.695808 -0.338784 0.0 
0.0230047 0.000537667 0.0 
0.957745 -0.0362914 0.0 
1.00674 0.00326688 0.0 
1.00924 -0.000964298 0.0 
1.00838 0.000410816 0.0 
-1.07799e-34 -8.60525e-36 0.0 
1.00246 -0.000529665 0.0 
0.175426 0.161017 0.0 
-3.03298e-16 -1.65824e-17 0.0 
1.00845 0.000219698 0.0 
0.477653 0.173061 0.0 
0.00389647 0.000225687 0.0 
0.780122 -0.323399 0.0 
0.00586408 0.000540547 0.0 
0.304791 0.0848703 0.0 
0.0109989 -0.00296656 0.0 
0.488613 -0.00124608 0.0 
0.088248 -0.0179972 0.0 
0.286711 -0.0283734 0.0 
-4.78694e-23 3.63603e-24 0.0 
0.592245 0.138644 0.0 
-4.41907e-44 -1.61746e-44 0.0 
1.00906 0.000751494 0.0 
0.766377 -0.417606 0.0 
0.998792 -0.00405086 0.0 
0.0216191 0.00706425 0.0 
1.01032 -0.00266761 0.0 
0.977537 -0.0405363 0.0 
0 0 0.0 
0.166073 0.0144571 0.0 
6.25322e-187 -5.55815e-189 0.0 
0.0516956 0.0138656 0.0 
-1.92991e-200 -3.06706e-201 0.0 
0.238901 0.00302869 0.0 
0.0148046 -0.000200939 0.0 
0.350704 -0.0171468 0.0 
0.682023 0.366461 0.0 
0.344994 0.132433 0.0 
0.745212 -0.045084 0.0 
1.00911 -0.00218301 0.0 
0.0112799 0.00104457 0.0 
0.999996 -0.000173461 0.0 
-8.24119e-259 1.28767e-259 0.0 
1.89562e-05 -8.47507e-07 0.0 
0.965349 -0.00284135 0.0 
1.00778 9.46624e-05 0.0 
1.0226 -0.00398842 0.0 
0 0 0.0 
1 0 0.0 
0.691007 0.137117 0.0 
0.108126 -0.0200636 0.0 
1.01174 -0.00179735 0.0 
0.99982 0.0025121 0.0 
0.802893 -0.440276 0.0 
1.01169 -0.000957902 0.0 
1.00718 -0.000141811 0.0 
0.998905 0.0188268 0.0 
1.00782 -0.0316105 0.0 
0.0628167 0.000893585 0.0 
1.0156 -0.00648604 0.0 
0.738647 -0.409171 0.0 
1.00016 0.000634567 0.0 
0.43678 -0.0979247 0.0 
1.00826 0.000170916 0.0 
1.00395 -0.000593511 0.0 
1.0084 -0.0028174 0.0 
0.612797 0.128848 0.0 
1.0096 -0.00111376 0.0 
0.493984 -0.320848 0.0 
0.0326096 -0.000218112 0.0 
0.00235911 -0.000399994 0.0 
1.01086 0.00154727 0.0 
1.01065 0.00097872 0.0 
0.544975 0.304653 0.0 
0.0321145 -0.000221975 0.0 
0.138446 -0.206738 0.0 
0.0116568 0.000929875 0.0 
0.00194212 -0.000177956 0.0 
0.845584 0.0364493 0.0 
0.713852 -0.438208 0.0 
0.00430795 0.000423159 0.0 
0 0 0.0 
0.00953564 -3.31276e-05 0.0 
4.16478e-90 -6.18543e-91 0.0 
0.130227 -0.0235258 0.0 
1.00843 -0.000648694 0.0 
0.657826 -0.463884 0.0 
0.137948 0.000631634 0.0 
0.0160033 0.00154566 0.0 
0.991768 -0.000962152 0.0 
0.270622 0.105621 0.0 
-3.20382e-18 -3.01093e-19 0.0 
0.0578602 0.000532317 0.0 
0.894797 -0.120386 0.0 
0.779685 -0.00978406 0.0 
0.373514 0.0254813 0.0 
1.02746 -0.167258 0.0 
0.144927 -0.0232157 0.0 
1.00084 0.00173591 0.0 
1.11482 0.0500265 0.0 
0.0231772 -0.0079553 0.0 