<VTKFile type="UnstructuredGrid" version="0.1" byte_order="LittleEndian">
  <UnstructuredGrid>
    <Piece NumberOfPoints="12891" NumberOfCells="25621">
      <Points>
        <DataArray type = "Float64" NumberOfComponents="3" format="ascii">
0 0 0.0 
14 0 0.0 
14 8 0.0 
0 8 0.0 
4.16782 4.09801 0.0 
4.39719 4.06904 0.0 
4.35691 3.96948 0.0 
4.22125 4.03864 0.0 
4.09208 3.95602 0.0 
4.636 3.92455 0.0 
4.33592 4.0755 0.0 
4.3776 4.06887 0.0 
13.3048 1.44272 0.0 
4.84602 4.02676 0.0 
3.96554 4.00011 0.0 
9.55607 5.17613 0.0 
3.98577 3.98747 0.0 
4.53001 4.0611 0.0 
3.99624 4.06151 0.0 
7.06003 4.17273 0.0 
4.01323 3.99894 0.0 
4.25514 3.95108 0.0 
4.25007 4.10489 0.0 
4.55681 3.95179 0.0 
4.96709 3.98166 0.0 
3.10601 7.43579 0.0 
4.20268 4.06265 0.0 
4.00962 4.08349 0.0 
3.94294 3.92341 0.0 
4.68343 4.04621 0.0 
4.07569 3.97249 0.0 
4.36723 4.05555 0.0 
4.46756 4.08384 0.0 
4.69165 4.07246 0.0 
4.09599 4.04733 0.0 
5.16613 4.24223 0.0 
4.49064 3.97657 0.0 
4.17759 3.97818 0.0 
4.09533 4.03459 0.0 
4.00922 3.99881 0.0 
0 6.14353 0.0 
4.44951 3.97298 0.0 
4.38384 3.97046 0.0 
7.87525 2.12448 0.0 
5.00671 4.01055 0.0 
4.34675 3.96947 0.0 
3.93682 3.99751 0.0 
4.11094 4.03801 0.0 
9.77227 4.07865 0.0 
6.87735 3.28268 0.0 
4.19353 4.07857 0.0 
4.62219 3.98067 0.0 
4.36069 4.07927 0.0 
4.19813 3.9367 0.0 
5.10318 3.82599 0.0 
4.06764 4.0409 0.0 
4.02815 4.04832 0.0 
3.87392 4.19363 0.0 
5.30578 4.00991 0.0 
4.85323 4.0255 0.0 
4.1871 4.07564 0.0 
5.41298 4.06119 0.0 
4.64214 4.06138 0.0 
4.18402 4.06139 0.0 
4.96507 4.02144 0.0 
3.97692 4.1005 0.0 
10.1576 0.988131 0.0 
4.01647 3.99236 0.0 
4.66776 3.98283 0.0 
4.9785 3.99659 0.0 
3.54113 5.14143 0.0 
4.77171 4.0368 0.0 
4.0339 4.05256 0.0 
4.27384 4.04023 0.0 
4.0192 3.99331 0.0 
4.68046 3.98411 0.0 
12.7915 5.45943 0.0 
4.97524 4.02614 0.0 
4.17785 3.95317 0.0 
5.10723 3.96156 0.0 
5.00785 4.00312 0.0 
10.8833 7.73481 0.0 
3.99379 4.00703 0.0 
14 6.11123 0.0 
4.18442 4.04414 0.0 
4.53492 3.96444 0.0 
3.96293 3.99513 0.0 
4.19845 3.95661 0.0 
4.66043 4.05058 0.0 
4.25803 4.11093 0.0 
5.02522 3.96811 0.0 
4.01301 4.01816 0.0 
3.88293 4.06948 0.0 
8.67743 7.6852 0.0 
6.92617 1.74546 0.0 
4.35304 4.08851 0.0 
3.81272 3.98979 0.0 
3.99922 3.99464 0.0 
5.03684 4.01469 0.0 
4.44832 4.06765 0.0 
4.04894 3.98467 0.0 
4.91112 4.08073 0.0 
4.58 3.97897 0.0 
4.01706 3.99618 0.0 
3.87595 4.26381 0.0 
14 5.21618 0.0 
5.30515 0.725654 0.0 
6.36791 6.25223 0.0 
4.42577 4.0808 0.0 
4.28749 4.07809 0.0 
3.94943 3.96456 0.0 
4.23756 3.97396 0.0 
4.76751 4.0543 0.0 
4.80536 4.01156 0.0 
4.00328 4.00276 0.0 
5.012 4.10727 0.0 
4.32692 4.0785 0.0 
4.35343 3.94951 0.0 
11.4717 0.893933 0.0 
6.60521 2.57966 0.0 
3.89706 4.12099 0.0 
4.34993 4.09246 0.0 
3.05817 4.59047 0.0 
4.34569 4.08404 0.0 
4.04777 4.03407 0.0 
4.37798 8 0.0 
4.12623 4.0709 0.0 
4.08373 4.05666 0.0 
4.09568 4.05562 0.0 
6.13094 1.24083 0.0 
4.84873 4.02719 0.0 
4.27852 0 0.0 
5.04845 4.04311 0.0 
4.29262 4.07791 0.0 
4.40773 3.97071 0.0 
4.02518 4.02675 0.0 
4.13434 4.07811 0.0 
4.99559 3.98923 0.0 
4.98343 3.99828 0.0 
4.30679 3.81539 0.0 
4.70266 8 0.0 
4.11675 6.26979 0.0 
5.65075 1.4994 0.0 
4.18236 3.96352 0.0 
4.35017 3.94589 0.0 
4.07394 4.02263 0.0 
4.22225 3.98357 0.0 
4.01129 4.00094 0.0 
5.52872 3.97338 0.0 
4.1741 4.07586 0.0 
13.7325 2.88488 0.0 
4.2284 4.07124 0.0 
4.81382 4.03153 0.0 
7.33243 1.39436 0.0 
4.47735 4.06655 0.0 
4.17676 5.51838 0.0 
3.91267 2.38613 0.0 
4.02873 4.0411 0.0 
4.88146 4.04087 0.0 
4.41277 3.9727 0.0 
4.08859 4.05676 0.0 
4.0826 3.93583 0.0 
5.23095 1.2023 0.0 
4.59887 1.3106 0.0 
4.12124 3.98374 0.0 
4.72545 3.98522 0.0 
4.76745 3.98744 0.0 
4.17912 4.05461 0.0 
4.35303 4.06185 0.0 
4.24743 3.99271 0.0 
4.86371 4.02405 0.0 
4.99458 4.03862 0.0 
7.04623 0.443875 0.0 
4.02244 4.02798 0.0 
4.1829 4.06659 0.0 
4.12635 4.07409 0.0 
0 1.4212 0.0 
4.18696 4.08441 0.0 
4.28638 4.00186 0.0 
4.0419 3.96636 0.0 
4.9614 3.98808 0.0 
3.96023 4.01528 0.0 
4.72697 4.04353 0.0 
4.25777 4.07923 0.0 
4.9908 4.01037 0.0 
4.25263 4.07039 0.0 
4.0644 3.93891 0.0 
4.67281 4.04989 0.0 
4.16503 4.11076 0.0 
8.27219 3.76152 0.0 
4.64874 4.05204 0.0 
0.318903 1.81332 0.0 
4.19206 3.91938 0.0 
6.88929 3.04385 0.0 
12.0974 7.0521 0.0 
4.09641 3.95124 0.0 
4.12454 3.92729 0.0 
4.08491 4.0641 0.0 
3.96293 4.03138 0.0 
4.46539 4.83904 0.0 
4.06298 3.99231 0.0 
4.35916 4.0592 0.0 
3.97265 3.9433 0.0 
4.13322 3.96848 0.0 
4.21125 3.95113 0.0 
3.99252 4.00665 0.0 
4.18832 4.06958 0.0 
4.17636 4.06982 0.0 
4.01378 4.004 0.0 
4.91664 3.99478 0.0 
3.94066 3.96869 0.0 
4.00093 4.03123 0.0 
3.95819 3.97698 0.0 
4.45451 4.06571 0.0 
0.426015 3.14062 0.0 
4.23165 4.07938 0.0 
5.00675 4.02514 0.0 
4.15636 4.04974 0.0 
3.95778 3.98461 0.0 
4.15969 4.03211 0.0 
3.9419 3.97853 0.0 
4.35365 4.04514 0.0 
4.19018 4.05306 0.0 
4.10081 3.94382 0.0 
3.99811 4.0003 0.0 
6.7549 5.48883 0.0 
6.88398 4.79117 0.0 
3.99651 4.05409 0.0 
4.74638 3.98635 0.0 
4.22913 4.08121 0.0 
5.00368 4.02219 0.0 
4.17813 4.05924 0.0 
3.9771 4.03148 0.0 
4.02387 4.02579 0.0 
4.21577 4.064 0.0 
4.49633 3.97498 0.0 
4.15561 4.10177 0.0 
4.18309 4.12442 0.0 
3.96476 4.03852 0.0 
4.05488 3.97566 0.0 
4.58034 4.04812 0.0 
3.96822 4.02719 0.0 
3.97233 4.04194 0.0 
3.98573 3.91699 0.0 
4.78733 4.03401 0.0 
4.39564 4.08373 0.0 
4.42223 4.0607 0.0 
4.20876 3.92492 0.0 
3.92251 4.00785 0.0 
4.01461 4.01953 0.0 
4.30929 4.04286 0.0 
5.23717 3.96684 0.0 
5.15491 3.95658 0.0 
11.0722 4.5313 0.0 
4.91741 4.01605 0.0 
4.01191 4.01731 0.0 
6.28613 0.281141 0.0 
4.14583 4.0438 0.0 
3.94564 3.99975 0.0 
4.79614 4.02009 0.0 
4.52813 4.06441 0.0 
4.00612 4.04547 0.0 
5.0401 4.02083 0.0 
4.98371 4.01321 0.0 
4.03845 4.03315 0.0 
4.85246 4.00914 0.0 
4.05073 3.98232 0.0 
4.13827 3.82526 0.0 
11.7013 4.10211 0.0 
4.27554 4.05011 0.0 
4.14183 3.94415 0.0 
4.36888 4.08399 0.0 
4.1384 3.95607 0.0 
4.08583 4.02136 0.0 
4.25101 3.95674 0.0 
4.88041 4.02037 0.0 
4.05056 7.30989 0.0 
5.08168 4.0101 0.0 
4.05428 3.94079 0.0 
3.88368 4.15123 0.0 
4.25505 4.06011 0.0 
4.02341 4.03456 0.0 
3.59935 6.37299 0.0 
4.52724 7.41561 0.0 
5.05919 4.01855 0.0 
4.11518 4.05302 0.0 
4.38846 4.07639 0.0 
12.8298 3.36132 0.0 
4.22714 3.92146 0.0 
4.51711 4.06316 0.0 
4.79904 4.03264 0.0 
4.24635 4.06251 0.0 
5.11668 4.02079 0.0 
4.03683 3.94561 0.0 
5.01542 3.99915 0.0 
4.06103 3.9941 0.0 
5.02983 4.05377 0.0 
1.24078 0.550265 0.0 
4.39584 3.97097 0.0 
6.29013 7.31555 0.0 
2.38032 0.204862 0.0 
4.24194 3.95539 0.0 
9.1005 7.43296 0.0 
4.54589 3.97757 0.0 
4.26148 3.94171 0.0 
4.45541 2.81742 0.0 
13.5492 6.05441 0.0 
4.15593 3.969 0.0 
4.01517 4.03055 0.0 
7.69149 3.28575 0.0 
3.99882 3.99972 0.0 
3.94945 3.97905 0.0 
4.01388 3.9861 0.0 
4.52272 4.11842 0.0 
4.07745 4.13972 0.0 
3.99908 3.98836 0.0 
5.14793 4.17318 0.0 
4.12151 3.94609 0.0 
4.07815 4.10689 0.0 
4.91848 3.80052 0.0 
4.00674 3.9905 0.0 
4.94282 3.99557 0.0 
4.0018 3.99395 0.0 
4.97222 4.02124 0.0 
4.90832 4.01707 0.0 
4.12673 3.95742 0.0 
4.24066 3.94665 0.0 
4.72448 4.04369 0.0 
4.2163 3.94824 0.0 
4.19497 3.96641 0.0 
4.22957 3.95099 0.0 
4.24578 4.08867 0.0 
4.12116 4.05283 0.0 
5.1327 4.04445 0.0 
4.73109 4.0648 0.0 
4.08699 4.0917 0.0 
4.00891 4.00796 0.0 
8.54322 3.86385 0.0 
4.97234 4.00664 0.0 
4.2655 3.94563 0.0 
4.37424 4.0854 0.0 
6.25312 4.08484 0.0 
3.99014 3.98454 0.0 
4.12408 3.94161 0.0 
6.6033 3.19998 0.0 
7.27622 2.6412 0.0 
4.01799 3.98081 0.0 
4.66701 4.07141 0.0 
1.36418 3.96175 0.0 
4.08139 3.94144 0.0 
4.13055 3.96556 0.0 
4.03513 3.9876 0.0 
3.9963 3.99794 0.0 
4.07527 3.94387 0.0 
3.01413 7.71701 0.0 
4.78744 3.98887 0.0 
1.71574 1.57796 0.0 
7.49325 3.14495 0.0 
4.62876 3.98095 0.0 
4.00717 4.01327 0.0 
4.51808 4.06155 0.0 
4.84943 4.02574 0.0 
12.2199 5.41672 0.0 
6.50048 0.807925 0.0 
4.34762 4.05403 0.0 
11.1846 4.26785 0.0 
4.30211 3.98484 0.0 
3.59374 3.59715 0.0 
4.17983 4.0788 0.0 
4.99445 4.00214 0.0 
7.83567 0.501869 0.0 
4.2489 4.09629 0.0 
5.06347 3.99507 0.0 
4.65852 3.98168 0.0 
4.2295 4.0772 0.0 
4.32398 4.05563 0.0 
5.08198 4.04957 0.0 
4.71995 3.98452 0.0 
5.02947 4.00625 0.0 
3.93708 4.10318 0.0 
6.09238 6.68174 0.0 
4.50602 3.97564 0.0 
3.84544 3.86172 0.0 
4.71301 4.04531 0.0 
4.0229 4.0327 0.0 
4.41223 4.06973 0.0 
4.23556 3.98929 0.0 
4.23659 3.96651 0.0 
4.13095 3.96838 0.0 
3.99883 4.01382 0.0 
4.93396 4.05028 0.0 
4.15093 4.04458 0.0 
4.08942 3.95104 0.0 
4.63736 4.05238 0.0 
0.293825 2.30473 0.0 
4.01165 4.04753 0.0 
3.8936 3.96454 0.0 
4.76312 4.03957 0.0 
4.20227 4.08039 0.0 
4.23985 4.08128 0.0 
4.87039 4.05396 0.0 
4.73581 4.04151 0.0 
4.05064 4.03831 0.0 
4.10203 3.95404 0.0 
3.99752 4.02893 0.0 
4.99077 4.00843 0.0 
4.26259 4.0847 0.0 
4.15582 4.07076 0.0 
4.21914 4.06596 0.0 
3.92276 3.95234 0.0 
4.1339 4.047 0.0 
7.69612 2.66902 0.0 
4.34889 4.1205 0.0 
4.01204 4.00974 0.0 
4.9921 3.96662 0.0 
4.02004 4.03743 0.0 
10.9249 4.11201 0.0 
4.08836 3.98164 0.0 
4.08637 3.98671 0.0 
8.1554 7.24604 0.0 
12.3861 1.6026 0.0 
4.00432 3.99827 0.0 
4.02169 4.00411 0.0 
4.42054 3.97174 0.0 
4.23808 3.91517 0.0 
4.25731 4.08266 0.0 
8.42862 0.411382 0.0 
4.0911 3.98345 0.0 
4.14295 3.97632 0.0 
3.98196 3.98783 0.0 
8.87792 8 0.0 
4.64764 4.09229 0.0 
4.22172 3.9542 0.0 
5.0218 3.98124 0.0 
4.22826 4.09621 0.0 
4.13228 4.0552 0.0 
4.0766 3.95386 0.0 
4.00074 4.00821 0.0 
5.10311 4.0306 0.0 
4.05031 3.97081 0.0 
4.01114 4.10412 0.0 
4.20677 4.06447 0.0 
4.10808 3.96074 0.0 
4.08645 3.96932 0.0 
2.50209 4.92303 0.0 
3.98027 4.05285 0.0 
9.95529 0.776257 0.0 
4.24132 4.07885 0.0 
4.73319 0.451556 0.0 
5.01331 3.98969 0.0 
4.20594 3.96731 0.0 
4.93936 4.01162 0.0 
4.22898 4.08419 0.0 
4.04077 3.99338 0.0 
10.899 7.45181 0.0 
5.0047 4.00229 0.0 
4.10231 3.92419 0.0 
11.025 6.86159 0.0 
13.1066 7.48347 0.0 
4.01884 3.99521 0.0 
4.08327 4.04519 0.0 
13.4588 2.01213 0.0 
4.79431 3.98939 0.0 
4.10553 4.04577 0.0 
6.30661 0 0.0 
4.05233 4.0338 0.0 
3.91264 4.09488 0.0 
5.18793 4.05304 0.0 
4.06244 3.99778 0.0 
3.0093 5.01153 0.0 
4.19721 4.05668 0.0 
4.59235 3.91439 0.0 
3.98111 4.00805 0.0 
[...]
<PointData>
  <DataArray type = "Float64" Name="Vitesse" NumberOfComponents="3" format="ascii">
1 0 0.0 
1.00079 0 0.0 
0.999609 0 0.0 
1 0 0.0 
1.03055 0.172433 0.0 
0.0194795 -8.6979e-05 0.0 
0.0154803 0.000483973 0.0 
0 0 0.0 
0.622357 -0.0816766 0.0 
0.677278 0.0140046 0.0 
0.155349 0.00304243 0.0 
8.11264e-07 -2.02092e-08 0.0 
1.0008 0.000632476 0.0 
0.00194326 -0.000204889 0.0 
0.646474 -0.0577062 0.0 
0.996787 -0.012636 0.0 
0.570044 -0.271956 0.0 
7.47268e-21 4.80532e-23 0.0 
0.80583 0.251262 0.0 
0.967992 -0.0096661 0.0 
0 0 0.0 
0.354921 -0.00297265 0.0 
0.948694 0.0974361 0.0 
0.329329 0.00995833 0.0 
0.151771 0.00844042 0.0 
1.00443 0.00156655 0.0 
7.20394e-06 2.84802e-07 0.0 
0.881998 0.245351 0.0 
0.879063 -0.132848 0.0 
8.8212e-26 -1.33065e-27 0.0 
2.22216e-06 -4.75246e-07 0.0 
0 0 0.0 
0.305242 -0.00800301 0.0 
0.247824 -0.0188945 0.0 
5.26273e-07 1.03548e-07 0.0 
1.03362 -0.0371724 0.0 
3.30653e-27 2.7867e-28 0.0 
0 0 0.0 
0 0 0.0 
0 0 0.0 
1 0 0.0 
0.00681874 0.000299109 0.0 
0.0140899 0.00103337 0.0 
1.00885 0.00200805 0.0 
0.0295249 -0.0141354 0.0 
0.0104903 0.000474814 0.0 
0.763897 -0.0380574 0.0 
0 0 0.0 
0.908874 -0.00896759 0.0 
1.00883 0.00373985 0.0 
0.569376 0.0731281 0.0 
0.00440454 0.000390498 0.0 
0.228691 0.00249473 0.0 
0.756318 -0.0413699 0.0 
1.02882 0.028933 0.0 
0.0666381 0.014524 0.0 
0.836103 0.360049 0.0 
0.939587 0.0765317 0.0 
0.250006 -0.000187999 0.0 
0.00133835 -0.000117266 0.0 
0.509222 0.0666086 0.0 
0.497906 -0.0227551 0.0 
0.0920806 -0.0075339 0.0 
0.0388734 0.00374026 0.0 
0.0417341 -0.00620907 0.0 
0.877246 0.171695 0.0 
1.00423 0.00168646 0.0 
0 0 0.0 
0.00442358 0.000339723 0.0 
0.0150493 0.0008352 0.0 
1.00465 0.0171982 0.0 
1.12384e-10 -4.82341e-12 0.0 
0.868832 0.35008 0.0 
1e-307 1e-307 0.0 
0 0 0.0 
9.52905e-06 1.22388e-06 0.0 
0.99912 0.000172277 0.0 
0.0675171 -0.0102613 0.0 
0.396401 -0.0162218 0.0 
0.390638 0.0297588 0.0 
0.024914 -0.00478172 0.0 
1.00096 -0.000335322 0.0 
0.253746 0.0716263 0.0 
0.999537 6.64662e-05 0.0 
0 0 0.0 
0.156042 0.00588021 0.0 
0.671441 -0.0813738 0.0 
0.27364 -0.00686763 0.0 
0.00716856 -0.000706893 0.0 
1.00791 0.100794 0.0 
0.304037 0.0279681 0.0 
-1.65188e-51 -1.42927e-51 0.0 
0.870573 0.0508407 0.0 
1.00532 -0.000690564 0.0 
1.00935 0.000991441 0.0 
0.440702 0.0101629 0.0 
0.901489 -0.0107024 0.0 
0.198577 -0.293373 0.0 
0.062161 -0.00936259 0.0 
0.0222831 -0.000899587 0.0 
-1.7444e-141 5.33039e-142 0.0 
0.459865 -0.0360394 0.0 
2.02903e-05 2.23757e-06 0.0 
0 0 0.0 
0.965605 0.0733277 0.0 
0.999562 0.000251434 0.0 
1.00812 -0.000780331 0.0 
1.01118 -0.00216388 0.0 
0.246363 -0.00428057 0.0 
0.274155 0.0110607 0.0 
0.79466 -0.13036 0.0 
1.12305e-58 6.32958e-60 0.0 
0.118474 -0.0119189 0.0 
0 0 0.0 
-1.42334e-112 -1.81911e-112 0.0 
0.741531 -0.0501642 0.0 
0.234145 0.00651954 0.0 
0.348874 0.00384849 0.0 
1.00228 0.001014 0.0 
1.01037 0.00216427 0.0 
0.899257 0.0831859 0.0 
0.5312 0.0154577 0.0 
0.991339 0.0113806 0.0 
0.347149 0.00732659 0.0 
-8.51355e-106 -3.06394e-106 0.0 
1.00766 0 0.0 
0.718811 0.145482 0.0 
0.609563 0.162559 0.0 
0.436158 0.107576 0.0 
1.00929 -0.000224693 0.0 
0.00506792 -0.000651532 0.0 
1.00607 0 0.0 
0.198774 -0.0264035 0.0 
0.259747 0.0111317 0.0 
0.0203775 0.000923833 0.0 
0.166633 0.0924752 0.0 
0.852766 0.168237 0.0 
0.0993198 0.0109832 0.0 
9.64513e-15 1.54783e-15 0.0 
1.08055 -0.0494931 0.0 
1.00825 0 0.0 
1.01003 0.00556892 0.0 
1.00998 -0.000806644 0.0 
0.107898 -0.00104477 0.0 
0.414344 0.00287607 0.0 
0 0 0.0 
0 0 0.0 
7.96249e-177 -2.31335e-176 0.0 
0.453701 0.0119612 0.0 
0.580393 0.0821073 0.0 
1.0002 0.00073573 0.0 
0.207694 0.0157812 0.0 
0.0024697 -0.000298694 0.0 
1.00869 0.000997478 0.0 
0.0267797 -0.000654254 0.0 
1.01467 0.0115597 0.0 
1.00777 -0.00942382 0.0 
0.732668 0.333039 0.0 
0.0944153 -0.0108067 0.0 
1.93851e-06 1.34558e-07 0.0 
0.558941 0.144676 0.0 
1.06183 -0.191934 0.0 
1.00895 -0.0013311 0.0 
1.0082 -0.00250425 0.0 
0 0 0.0 
0.00618488 0.000264578 0.0 
0.00502339 0.000405442 0.0 
0 0 0.0 
0 0 0.0 
0 0 0.0 
0.00158692 -0.000177831 0.0 
0.146463 -0.0209575 0.0 
1.00836 0.000200625 0.0 
0.335723 0.176674 0.0 
0.222122 0.0261646 0.0 
0.803327 0.16543 0.0 
1 0 0.0 
0.754064 0.105342 0.0 
0 0 0.0 
0.685867 -0.180553 0.0 
0.0873129 0.00456953 0.0 
0.678724 0.0261044 0.0 
0.00794599 -0.000904751 0.0 
0.368486 0.0272394 0.0 
0.0197841 -0.00541186 0.0 
0.121583 0.00998747 0.0 
1.06058 -0.227565 0.0 
0.0112917 -0.00100075 0.0 
1.09276 0.185183 0.0 
0.981065 -0.00365818 0.0 
0.00901427 -0.000999793 0.0 
1.00001 -0.000289861 0.0 
1.01878 -0.0781024 0.0 
1.00978 0.00312544 0.0 
0.999728 -0.000398628 0.0 
0.75368 -0.101881 0.0 
1.05452 -0.134297 0.0 
0.8248 0.225354 0.0 
0.707376 0.0972467 0.0 
1.03458 0.0182236 0.0 
0 0 0.0 
0 0 0.0 
0.850609 -0.201011 0.0 
2.91504e-06 -1.37663e-07 0.0 
0.396867 -0.0106128 0.0 
0.283787 0.047755 0.0 
0.303886 0.0394525 0.0 
0.370281 0.0475129 0.0 
0 0 0.0 
0.00435501 0.000167445 0.0 
0.797857 -0.105318 0.0 
0.640662 0.342021 0.0 
0.743057 -0.134217 0.0 
1.12695e-17 -8.21846e-19 0.0 
0.999931 -0.00023552 0.0 
0.445977 0.0406356 0.0 
0.076816 -0.0192471 0.0 
0 0 0.0 
0.720378 -0.111573 0.0 
0 0 0.0 
0.775679 -0.0901448 0.0 
-1.2054e-301 5.66871e-303 0.0 
0 0 0.0 
0.915591 -0.131234 0.0 
0.0647413 -0.120432 0.0 
1.01114 -0.00516232 0.0 
1.00935 -0.00736301 0.0 
0.777954 0.263952 0.0 
0.00573996 0.00060634 0.0 
0.506743 0.0485001 0.0 
0.06348 -0.0176428 0.0 
2.43126e-07 1.99958e-08 0.0 
0.662329 0.156465 0.0 
0.15056 0.0802758 0.0 
6.88434e-07 1.0045e-07 0.0 
0.00503185 0.000528449 0.0 
1.06875 0.191718 0.0 
1.10846 0.168699 0.0 
0.724732 0.122589 0.0 
3.49778e-09 -1.06107e-09 0.0 
-1.66346e-49 3.64719e-51 0.0 
0.674166 0.100715 0.0 
0.72229 0.157263 0.0 
0.919381 -0.194524 0.0 
-2.06525e-44 1.55986e-45 0.0 
0.309026 -0.00134076 0.0 
-3.01508e-39 2.98932e-41 0.0 
0.934148 -0.0575993 0.0 
0.793398 -0.00958834 0.0 
0.0503168 0.0295511 0.0 
1e-307 1e-307 0.0 
0.398295 0.0224112 0.0 
0.448909 0.0286902 0.0 
0.998425 -0.00249363 0.0 
0.00229064 -0.00036883 0.0 
-1.69643e-46 -1.46782e-46 0.0 
1.00843 -5.72542e-05 0.0 
0 0 0.0 
0.73687 -0.0383349 0.0 
1.29224e-178 -1.08306e-179 0.0 
0.0369041 -0.00227649 0.0 
0.762407 0.328774 0.0 
0.0781158 -0.0140725 0.0 
0.0232116 -0.00477766 0.0 
0.198848 0.085004 0.0 
-3.88627e-106 3.17195e-107 0.0 
2.16722e-79 -7.64422e-80 0.0 
1.06285 -0.103754 0.0 
0.997505 0.00231159 0.0 
0 0 0.0 
0.743086 -0.0645809 0.0 
0.328473 0.00372743 0.0 
0.405631 -0.0271927 0.0 
0 0 0.0 
0.23356 0.000128979 0.0 
-3.41782e-67 3.59156e-68 0.0 
1.00732 0.00178916 0.0 
0.0997505 -0.00116568 0.0 
1.05454 -0.249297 0.0 
0.920585 0.0789164 0.0 
1.64131e-41 1.06362e-42 0.0 
0.611523 0.306954 0.0 
1.00699 0.0056668 0.0 
1.00835 0.00113377 0.0 
0.0877699 -0.00946678 0.0 
0.102558 0.0219579 0.0 
0.159941 -0.00277102 0.0 
0.999899 0.00121389 0.0 
0.947215 -0.052448 0.0 
0.0117272 -0.000133317 0.0 
4.18863e-21 -1.48977e-22 0.0 
2.3966e-25 2.36535e-26 0.0 
0.137243 -0.00867548 0.0 
1.02587 -0.289778 0.0 
0.0504516 0.00562741 0.0 
0 0 0.0 
0.272649 -0.0316861 0.0 
1.00048 -0.000455028 0.0 
0.0107779 -0.000355772 0.0 
1.0095 -0.000415831 0.0 
1.00197 -0.000364637 0.0 
0.268399 -0.0011657 0.0 
1.0044 -0.00127885 0.0 
2.85554e-23 1.90891e-24 0.0 
0.550283 -0.0105388 0.0 
1.01684 -0.0108173 0.0 
0.999458 5.56368e-05 0.0 
5.69689e-07 -1.80383e-08 0.0 
0.604076 0.3374 0.0 
1.00852 0.0013968 0.0 
0.0490635 -0.117069 0.0 
0.758935 -0.104837 0.0 
1.9507e-59 -9.23706e-60 0.0 
0.836121 -0.00863399 0.0 
1.01834 0.20148 0.0 
0.478942 -0.44476 0.0 
1.01081 -0.0439367 0.0 
0.772001 -0.0832391 0.0 
1.02103 0.242623 0.0 
1.05071 0.0172485 0.0 
2.29531e-83 -1.08761e-83 0.0 
0.00748015 0.000804208 0.0 
0.0944605 -0.146307 0.0 
0.0446966 -0.00697221 0.0 
0.00132045 -0.000122651 0.0 
0.398552 -0.0304675 0.0 
0.467051 -0.00927072 0.0 
0.00715911 -0.000667615 0.0 
0.460517 -0.013058 0.0 
0.0315159 0.000371315 0.0 
0.37918 -0.00672326 0.0 
0.65114 0.0601395 0.0 
0.0389789 0.00564644 0.0 
0.258077 -0.023007 0.0 
0.190601 -0.0168451 0.0 
1.03359 0.261437 0.0 
0 0 0.0 
0.876659 -0.00198651 0.0 
0.00146974 -0.000184813 0.0 
0.463991 -0.00589381 0.0 
0.355877 0.00366466 0.0 
0.748782 -0.011402 0.0 
0.593887 -0.345389 0.0 
0.868938 -0.0974633 0.0 
1.01 0.00389644 0.0 
1.00918 0.00206449 0.0 
0.339786 -0.146679 0.0 
0.21998 -0.0164015 0.0 
0.998854 0.000374319 0.0 
1.02194 -0.184734 0.0 
0.110816 -0.00826118 0.0 
0 0 0.0 
0.183336 -0.238114 0.0 
1.01254 -0.194061 0.0 
1.00414 0.000765242 0.0 
0.000266154 -8.25591e-06 0.0 
1.00062 -0.00180527 0.0 
1.00833 0.00216182 0.0 
0.00527674 0.000626978 0.0 
1.24713e-21 9.33051e-22 0.0 
1.03317e-17 -9.32844e-19 0.0 
9.85288e-08 -9.85572e-09 0.0 
0.998563 9.30292e-06 0.0 
1.00869 1.89394e-05 0.0 
-4.09325e-193 -1.40805e-194 0.0 
0.992412 0.000496748 0.0 
0 0 0.0 
0.982077 -0.025473 0.0 
0.638374 0.0896486 0.0 
0.00126238 -0.000235029 0.0 
1.00779 0.000485757 0.0 
0.811098 0.0786811 0.0 
0.121756 0.0112267 0.0 
0.0109632 0.000580099 0.0 
0.388754 0.0346577 0.0 
0 0 0.0 
0.262542 -0.029041 0.0 
0.0112532 0.000393773 0.0 
0.0534292 -0.00203689 0.0 
0.87528 0.115964 0.0 
1.01077 -0.000793642 0.0 
0.000732452 2.01324e-05 0.0 
0.93337 -0.0608638 0.0 
0.00944762 -0.0011273 0.0 
0.553624 0.282681 0.0 
0.0393366 -0.000918983 0.0 
6.32564e-189 7.81368e-190 0.0 
0.0266535 0.00111202 0.0 
0.0191606 -0.00247504 0.0 
0.312064 0.26708 0.0 
0.193312 -0.0202535 0.0 
-1.95767e-144 -3.3774e-145 0.0 
0.801539 -0.120407 0.0 
0.00439106 -7.56155e-07 0.0 
0.999995 -0.000266714 0.0 
0.791664 0.343329 0.0 
0.856295 -0.0536009 0.0 
0.010274 -0.00118396 0.0 
0.584534 0.0713666 0.0 
0.473947 0.0420226 0.0 
0.183434 -0.0181547 0.0 
0.00193478 -0.000126933 0.0 
0.235097 0.073275 0.0 
0.630639 -0.0745724 0.0 
0.608665 0.316828 0.0 
0.0147347 -0.00396168 0.0 
0.505166 0.0381682 0.0 
0.519733 0.0819322 0.0 
0.0595411 0.00286002 0.0 
0.843435 -0.0932796 0.0 
0 0 0.0 
1.00892 0.00204361 0.0 
0.990864 0.0520052 0.0 
0 0 0.0 
0.309476 0.0214991 0.0 
0.715952 0.359879 0.0 
0.990694 0.00139009 0.0 
0 0 0.0 
0 0 0.0 
1.00662 -0.00159544 0.0 
1.00114 0.00110247 0.0 
0 0 0.0 
0 0 0.0 
0.0113285 0.000153694 0.0 
0.997631 -0.0545476 0.0 
0.464454 0.036223 0.0 
1.0071 0.000535567 0.0 
0 0 0.0 
0 0 0.0 
0.59026 -0.226786 0.0 
1.00481 0 0.0 
0.479142 -0.0249449 0.0 
0.310509 -0.00501438 0.0 
0.181948 0.0238991 0.0 
0.864959 0.0971367 0.0 
0.0515285 0.00712759 0.0 
0.801108 -0.13997 0.0 
0.0845526 0.109515 0.0 
0.158189 -0.0163384 0.0 
0.327146 -0.0656874 0.0 
0.914629 0.216768 0.0 
0.0537126 0.00417301 0.0 
0.354761 -0.0333458 0.0 
0.0970192 -0.00714236 0.0 
0.997561 0.00655696 0.0 
0.760192 0.198715 0.0 
1.00464 0.00134344 0.0 
0.400431 0.0343234 0.0 
1.0071 -0.00074613 0.0 
0.105994 0.0190476 0.0 
0.00101323 3.05494e-06 0.0 
0.000122945 -2.34735e-05 0.0 
0.589266 0.05899 0.0 
0 0 0.0 
1.00081 -0.00071497 0.0 
0.018397 -0.00521298 0.0 
1.08622 -0.166204 0.0 
1.00025 -0.00134588 0.0 
0.999622 -6.60138e-05 0.0 
0 0 0.0 
0.0723911 0.0105781 0.0 
1.00056 0.000744217 0.0 
7.45107e-06 3.92181e-07 0.0 
2.74179e-27 5.93124e-28 0.0 
1.00827 0 0.0 
-6.95361e-121 -2.75618e-121 0.0 
0.873751 0.0872715 0.0 
0.347728 -0.0261668 0.0 
0 0 0.0 
0.998419 0.0117555 0.0 
0 0 0.0 
0.790428 0.0106078 0.0 
0.504709 0.011011 0.0 
0.914304 -0.0422546 0.0 
0 0 0.0 
1.01526 -0.0253691 0.0 
0.707709 -0.376686 0.0 
0.415349 -0.00832081 0.0 
1.07424 -0.0983422 0.0 
0.999896 3.70689e-05 0.0 
1.05597 0.00348316 0.0 
0.975276 0.0134146 0.0 
0.271721 0.0259789 0.0 
2.28935e-06 2.47573e-07 0.0 
0.656463 -0.284633 0.0 
0 0 0.0 
0.390957 -0.0188958 0.0 
1.00796 0 0.0 
1.00476 0.000443034 0.0 
0.00713676 -0.00101503 0.0 
0.257693 -0.0138398 0.0 
0.999106 -0.000286661 0.0 
1.07591 0.178189 0.0 
0.715277 -0.266155 0.0 
1.00009 0.00111874 0.0 
0.00832733 -0.000254338 0.0 
0.999581 -1.2852e-05 0.0 
0.240078 0.00913987 0.0 
1.00135 0.0060948 0.0 
0.995253 -0.00747183 0.0 
0 0 0.0 
6.12717e-70 -2.40733e-70 0.0 
0.717193 0.338038 0.0 
0.52512 -0.0572758 0.0 
0.275475 0.0105698 0.0 
0.648641 0.257574 0.0 
0.712606 0.27207 0.0 
0.861366 -0.0718177 0.0 
0.747326 -0.383614 0.0 
3.39373e-06 2.96708e-07 0.0 
0.858715 0.15322 0.0 
0.00112339 -0.000106639 0.0 
0 0 0.0 
0.767834 0.120802 0.0 
0.492235 0.0957202 0.0 
0.0144096 0.000694345 0.0 
0 0 0.0 
0.00842764 0.00121677 0.0 
2.05659e-27 2.34205e-28 0.0 
0.853645 -0.00925832 0.0 
0.455316 0.0253231 0.0 
1.02429 0.00374644 0.0 
0.677587 0.242721 0.0 
1.00111 0 0.0 
0 0 0.0 
0.00337967 -4.30549e-05 0.0 
0.709802 0.376282 0.0 
1.00016 0.0012539 0.0 
0.582941 0.344294 0.0 
1.00101 -0.00108863 0.0 
1.00735 0.00104165 0.0 
0 0 0.0 
4.21413e-78 1.54121e-79 0.0 
0.728883 0.309213 0.0 
1.00034 -0.000259011 0.0 
0.278844 0.0196255 0.0 
1.00495 0.000359231 0.0 
1.01168 -0.00549043 0.0 
0.0409043 0.00323079 0.0 
2.42862e-19 1.06613e-20 0.0 
0.607775 -0.290531 0.0 
1.00771 0.00286726 0.0 
1.01992 -0.251783 0.0 
0.00923969 0.000420566 0.0 
0.345615 -0.0230949 0.0 
0 0 0.0 
1.07245 0.202581 0.0 
1.4889e-15 -7.27888e-17 0.0 
1.00183 -0.00267991 0.0 
0.553974 -0.0635213 0.0 
0.536745 0.0991028 0.0 
0 0 0.0 
0.187545 0.0117379 0.0 
0.883087 0.144564 0.0 
0.904975 0.0282287 0.0 
0.573831 -0.0454269 0.0 
0.424887 -0.122433 0.0 
0.763068 0.306378 0.0 
0 0 0.0 
0.640414 0.00110433 0.0 
0.580506 -0.427769 0.0 
0.218005 -0.0206367 0.0 
1.0003 0 0.0 
0.999587 -2.06112e-05 0.0 
0.449106 -0.0992093 0.0 
0.541526 -0.0327876 0.0 
0.0113943 0.000940547 0.0 
0.845796 0.172988 0.0 
0.860707 -0.0510277 0.0 
0 1e-307 0.0 
0.722228 0.0544922 0.0 
0.494728 0.108125 0.0 
1.01614 -0.00174357 0.0 
0.0666813 -0.00143193 0.0 
0.782113 0.367584 0.0 
0.835531 0.138731 0.0 
0 0 0.0 
1.00052 0.000534304 0.0 
0.0176017 -0.000340516 0.0 
2.79574e-138 4.73576e-138 0.0 
0 0 0.0 
0.119278 -0.0100284 0.0 
0.471611 -0.0833548 0.0 
0.00385232 -0.000483234 0.0 
1.00736 -0.00689322 0.0 
0.460673 -0.043298 0.0 
1 0 0.0 
0.00205176 -0.000242096 0.0 
0.760136 0.373514 0.0 
0 0 0.0 
0 0 0.0 
0.0269413 0.00126365 0.0 
1.01027 -0.00315623 0.0 
0.320077 0.0634568 0.0 
1 0 0.0 
1.00923 0 0.0 
0.749624 0.278278 0.0 
0 0 0.0 
0.999555 4.17254e-06 0.0 
1.27777e-16 4.16475e-18 0.0 
1.09639 -0.0750881 0.0 
0.992279 -0.00880999 0.0 
0.151086 0.0179898 0.0 
9.27582e-29 -6.89624e-30 0.0 
1.00607 0 0.0 
0.0741063 0.0143339 0.0 
0.789915 0.319923 0.0 
0.00552991 -0.000205775 0.0 
2.84786e-28 -5.48505e-29 0.0 
0.040938 -0.0135271 0.0 
0.490643 -0.0495061 0.0 
0.77004 0.36583 0.0 
0.747652 0.0643661 0.0 
0.541635 0.166799 0.0 
1.00088 0.00237828 0.0 
0.864398 0.355092 0.0 
2.24872e-05 -3.29605e-06 0.0 
0.490381 -0.17092 0.0 
0.815948 0.357376 0.0 
0.294091 0.00224823 0.0 
1.00972 -0.00493081 0.0 
0.943246 -0.335094 0.0 
0.573324 -0.0610852 0.0 
0.74587 -0.090457 0.0 
0.805997 -0.0813891 0.0 
1.00135 -0.00734531 0.0 
-1.44207e-30 -1.7151e-31 0.0 
0.14172 -0.0188802 0.0 
0.324669 0.0446637 0.0 
1.05068 0.10262 0.0 
0.999067 0.0297974 0.0 
0 0 0.0 
0.834889 -0.116226 0.0 
1.00304 -0.000492686 0.0 
0.92529 -0.0330871 0.0 
1.01448 -0.00113477 0.0 
1.0978 -0.10412 0.0 
0.0077133 8.09337e-05 0.0 
0.0462029 -0.00984528 0.0 
0.580049 -0.0180949 0.0 
0.00642828 0.000706075 0.0 
1.00454 -0.266267 0.0 
0.412441 -0.00459528 0.0 
0.810513 0.127834 0.0 
2.12816e-19 4.8503e-19 0.0 
0.130763 0.00874038 0.0 
0.197137 -0.00824545 0.0 
0.453854 -0.047604 0.0 
0.621717 -0.0322182 0.0 
0.934951 -0.0431844 0.0 
0.864395 0.0666293 0.0 
1.01062 0.00246343 0.0 
0.780787 0.137354 0.0 
1.00083 0.000964194 0.0 
-6.33191e-91 -2.42302e-91 0.0 
4.33035e-79 -2.05189e-79 0.0 
0.00498715 -0.000701783 0.0 
0.800222 0.0741989 0.0 
1.0017 0 0.0 
1.00915 -0.00578295 0.0 
0.695534 -0.447172 0.0 
0.768087 0.0884431 0.0 
1.00768 -0.00626496 0.0 
1.0062 0.00405747 0.0 
0 0 0.0 
0.215854 -0.00260632 0.0 
0.247189 -0.0126677 0.0 
0.200481 0.0295191 0.0 
0.771219 -0.289038 0.0 
0.0019281 -0.000138689 0.0 
1.01446 -0.0135493 0.0 
1.00473 -0.000652106 0.0 
1.00547 0.000936319 0.0 
0.403753 -0.00317371 0.0 
0.781223 -0.045851 0.0 
0.172559 0.0128786 0.0 
1.00506 -0.00134005 0.0 
1.00943 -0.00180058 0.0 
0.860044 -0.142703 0.0 
2.10904e-05 -8.6117e-07 0.0 
0.0373777 0.000579348 0.0 
0.591956 0.082152 0.0 
0.0432911 -0.0166401 0.0 
1.09177 0.019896 0.0 
0.0206694 0.00121103 0.0 
1.72322e-15 1.49965e-16 0.0 
3.54037e-29 -2.51263e-30 0.0 
0.32548 -0.0212271 0.0 
1.94938e-06 -2.39788e-07 0.0 
0.441284 0.0507365 0.0 
0.965783 -0.0433625 0.0 
0 0 0.0 
0.229817 0.0176132 0.0 
0.0417863 0.00154554 0.0 
-5.29236e-108 -2.18592e-108 0.0 
0.8625 0.258812 0.0 
1.02629 0.01674 0.0 
0 0 0.0 
0 0 0.0 
0.00669193 -0.000587149 0.0 
0.875706 -0.0562039 0.0 
0.13676 -0.0134813 0.0 
1.00077 0.00193311 0.0 
0.0175688 -0.00106604 0.0 
0 0 0.0 
0.892009 -0.299715 0.0 
4.40856e-26 4.40632e-27 0.0 
0.967008 0.306009 0.0 
0.828639 -0.293046 0.0 
1.05454 0.0104722 0.0 
0.00779477 -0.000369694 0.0 
0 0 0.0 
1.00121 -0.00150952 0.0 
1.00067 0.00298591 0.0 
0.998239 0.000257978 0.0 
0 0 0.0 
1.01752 -0.01739 0.0 
0.00325536 -0.000140008 0.0 
0 0 0.0 
-1.94079e-147 3.57434e-149 0.0 
1.09141 0.185862 0.0 
1.06105 0.219941 0.0 
1.00049 0.00518344 0.0 
1.0185 -0.301538 0.0 
0.313818 -0.0133506 0.0 
0.94139 -0.100681 0.0 
1.0036 0.0041033 0.0 
1.47092e-14 1.27081e-15 0.0 
0.353173 -0.00392187 0.0 
1.01206 -0.294305 0.0 
0.753442 0.220629 0.0 
0.324745 0.168263 0.0 
0.010069 0.000246191 0.0 
0.227 -0.00278201 0.0 
0.0575191 0.0128532 0.0 
0.0736881 -0.000143133 0.0 
0.999511 5.50779e-05 0.0 
0.999959 0.0014047 0.0 
0.476133 0.331486 0.0 
0.999512 -0.000212006 0.0 
0.608304 -0.256884 0.0 
0.461118 -0.19071 0.0 
0.319713 0.0762858 0.0 
0.329596 -0.32371 0.0 
0 0 0.0 
0.12861 -0.00949472 0.0 
0.189225 0.0404171 0.0 
7.85322e-179 -4.72839e-180 0.0 
0.100202 -0.00984505 0.0 
1.00973 0.256222 0.0 
0.726464 -0.0650016 0.0 
0.0109979 0.000846999 0.0 
1.27807e-17 1.28673e-18 0.0 
1.00127 0.00188086 0.0 
0.758962 -0.0167315 0.0 
1.05551 0.0955949 0.0 
0.0937717 0.00349077 0.0 
0.0145347 0.000633263 0.0 
1.06687 -0.037108 0.0 
0.608024 -0.462744 0.0 
0.000163414 1.60939e-05 0.0 
0.429414 0.00413664 0.0 
0.727925 0.192324 0.0 
1.10192 -0.0085837 0.0 
0.679104 0.200432 0.0 
1.008 0 0.0 
0.077585 -0.00643861 0.0 
0.887599 -0.0144499 0.0 
0 0 0.0 
1.02475 0.00141773 0.0 
1.00166 0.0131529 0.0 
0.996175 0.000450219 0.0 
1.00774 -0.00170904 0.0 
0.115905 -0.008981 0.0 
1.03634 -0.272704 0.0 
0.908913 0.260481 0.0 
0.837955 -0.0227985 0.0 
0 0 0.0 
1.01205 -0.00242756 0.0 
0.0363823 -0.0152938 0.0 
0.999683 0.00093785 0.0 
2.98786e-177 -2.5042e-178 0.0 
0.446349 -0.0100617 0.0 
0.0176972 -0.00109144 0.0 
0.153064 -0.0174561 0.0 
0.882013 -0.023582 0.0 
1.00699 -0.000386419 0.0 
1.00272 0.00395757 0.0 
0.298665 0.00893868 0.0 
1.00782 -0.00140976 0.0 
-9.73021e-116 6.46265e-118 0.0 
0.000822324 -0.00012126 0.0 
1.007 -0.00495303 0.0 
0.585216 -0.0715515 0.0 
0.0437847 -0.00932831 0.0 
1.00401 0.00554393 0.0 
0.0547215 0.00150328 0.0 
0.111945 -0.0152262 0.0 
0.0136763 -0.00110851 0.0 
1.001 0.000763556 0.0 
0 0 0.0 
1.011 -0.00602291 0.0 
1.07515 -0.110643 0.0 
0.0618324 0.00248258 0.0 
0.00678754 0.000224792 0.0 
0.0442798 -0.00236584 0.0 
0 0 0.0 
0.0644033 0.0142977 0.0 
0.0918781 -0.0104104 0.0 
-1.64751e-48 3.84443e-48 0.0 
1.00098 0 0.0 
1.09408 -0.100244 0.0 
0.941929 -0.359871 0.0 
0.986407 -0.238111 0.0 
0.950742 -0.288441 0.0 
1.0087 -0.00307309 0.0 
0.996851 0.000734486 0.0 
0.0487514 -0.00340554 0.0 
0 0 0.0 
0 0 0.0 
1 0 0.0 
1.00036 0.00123847 0.0 
0.77887 -0.0252041 0.0 
0.998459 0.128807 0.0 
1.0076 -0.00518448 0.0 
9.17642e-05 -6.01387e-06 0.0 
0.0878853 -0.00916233 0.0 
0.651667 0.277579 0.0 
0.850421 0.105075 0.0 
0.159338 0.0348785 0.0 
0.920084 -0.304476 0.0 
1.00003 0.000518154 0.0 
0.589881 0.228426 0.0 
0.1596 -0.00587159 0.0 
0 0 0.0 
0.952454 0.284668 0.0 
1.00006 -0.000117481 0.0 
2.23765e-17 -3.15194e-18 0.0 
0.818747 -0.244036 0.0 
0.999597 -3.9859e-05 0.0 
0.309255 0.0222213 0.0 
0 0 0.0 
0 0 0.0 
1.22088e-23 1.06116e-24 0.0 
0.161283 0.169312 0.0 
0.0333601 -0.0149701 0.0 
1.01695 -0.110522 0.0 
0.889422 -0.0913628 0.0 