<VTKFile type="UnstructuredGrid" version="0.1" byte_order="LittleEndian">
  <UnstructuredGrid>
    <Piece NumberOfPoints="12676" NumberOfCells="25194">
      <Points>
        <DataArray type = "Float64" NumberOfComponents="3" format="ascii">
0 0 0.0 
14 0 0.0 
14 8 0.0 
0 8 0.0 
3.99171 4.04983 0.0 
3.98506 4.07885 0.0 
0.483697 5.24337 0.0 
4.96635 4.00741 0.0 
4.27598 4.05023 0.0 
4.34684 4.0781 0.0 
4.04913 3.96924 0.0 
12.1822 3.17661 0.0 
12.5949 1.78564 0.0 
4.07329 3.46589 0.0 
4.52698 4.06212 0.0 
5.01913 4.00381 0.0 
4.08492 3.93693 0.0 
4.01956 3.98305 0.0 
4.38095 3.94399 0.0 
5.00175 4.00176 0.0 
4.40041 3.95585 0.0 
11.987 1.81334 0.0 
4.05477 4.02613 0.0 
4.36723 4.05555 0.0 
4.17043 4.04947 0.0 
8.29677 5.77683 0.0 
12.8057 1.94595 0.0 
4.39419 3.97121 0.0 
4.00922 3.99881 0.0 
4.02803 4.04844 0.0 
4.42268 4.05058 0.0 
4.01927 3.99345 0.0 
4.03281 3.93129 0.0 
4.11094 4.03801 0.0 
4.84218 4.09374 0.0 
4.95169 3.98323 0.0 
3.98196 3.98783 0.0 
5.00749 4.02107 0.0 
4.36023 4.05917 0.0 
4.11181 3.96864 0.0 
4.34243 3.9191 0.0 
4.03416 4.05264 0.0 
4.07999 4.05154 0.0 
4.21841 4.05617 0.0 
5.00166 3.98677 0.0 
5.83812 4.00519 0.0 
4.01658 3.9924 0.0 
4.02968 4.00685 0.0 
3.99709 3.98344 0.0 
4.88044 0 0.0 
4.83362 4.02925 0.0 
4.03485 4.0566 0.0 
3.9551 4.02675 0.0 
4.73767 4.0214 0.0 
11.6673 1.90273 0.0 
4.12896 4.05316 0.0 
4.62278 3.95949 0.0 
4.33952 4.07419 0.0 
3.96821 4.02728 0.0 
10.8833 7.73481 0.0 
14 6.11123 0.0 
4.13276 4.06712 0.0 
3.96293 3.99513 0.0 
4.03268 4.02147 0.0 
4.04175 3.99348 0.0 
4.06523 4.00932 0.0 
4.36986 3.9702 0.0 
3.99922 3.99464 0.0 
4.67161 4.04908 0.0 
4.73754 3.9866 0.0 
4.99983 4.00536 0.0 
14 5.21618 0.0 
4.99482 4.03696 0.0 
8.55881 8 0.0 
4.85445 3.99228 0.0 
4.11383 4.07301 0.0 
4.25654 4.02815 0.0 
5.00991 4.10716 0.0 
4.80478 4.05819 0.0 
4.97173 3.99697 0.0 
4.24422 7.49665 0.0 
4.35343 3.94951 0.0 
4.04321 3.97194 0.0 
4.12213 3.94584 0.0 
4.60091 3.87617 0.0 
4.23647 3.95137 0.0 
5.00128 3.99352 0.0 
4.08373 4.05666 0.0 
4.0379 3.97231 0.0 
4.38526 3.90461 0.0 
4.27852 0 0.0 
5.04845 4.04311 0.0 
4.83746 3.97771 0.0 
4.00169 4.00982 0.0 
4.10138 3.95638 0.0 
8.76519 4.32819 0.0 
3.89492 4.1837 0.0 
4.8952 3.99599 0.0 
4.14849 4.06778 0.0 
0.958544 0 0.0 
10.1833 0.248119 0.0 
4.02875 4.04115 0.0 
4.1741 4.07586 0.0 
4.16058 4.10191 0.0 
3.7391 1.31631 0.0 
1.26284 5.53443 0.0 
4.25758 3.94763 0.0 
4.1379 4.03142 0.0 
4.64194 3.98147 0.0 
3.91267 2.38613 0.0 
1.65678 3.27105 0.0 
4.06341 4.03912 0.0 
4.00946 4.0008 0.0 
4.49532 4.08157 0.0 
4.12124 3.98374 0.0 
10.9511 0.632678 0.0 
11.4939 6.59441 0.0 
4.52357 3.96609 0.0 
4.71134 3.98499 0.0 
3.99123 4.03344 0.0 
4.22928 4.06575 0.0 
4.02244 4.02798 0.0 
4.56903 3.97843 0.0 
0 1.4212 0.0 
4.90755 3.99535 0.0 
2.31502 3.20822 0.0 
4.11735 4.19176 0.0 
5.01331 3.98969 0.0 
4.19165 3.91926 0.0 
2.57592 0.577205 0.0 
5.05415 4.0144 0.0 
4.69951 4.04552 0.0 
4.12613 3.92733 0.0 
6.58758 3.89252 0.0 
5.005 4.00364 0.0 
4.27643 4.06974 0.0 
4.08696 3.9688 0.0 
4.13478 4.06268 0.0 
3.55366 3.60189 0.0 
4.53591 4.06165 0.0 
4.17721 4.06988 0.0 
4.01888 3.97004 0.0 
3.99252 4.00665 0.0 
4.00947 4.02943 0.0 
4.12561 3.97867 0.0 
11.4588 4.50085 0.0 
11.8453 6.63552 0.0 
4.22237 3.96597 0.0 
4.04425 3.97458 0.0 
4.43158 3.97285 0.0 
4.05784 3.98854 0.0 
5.06886 4.12388 0.0 
5.19745 3.88865 0.0 
4.10081 3.94382 0.0 
4.03932 4.0549 0.0 
4.0366 3.96299 0.0 
5.00368 4.02219 0.0 
10.7396 5.64099 0.0 
4.1189 4.05833 0.0 
4.1868 4.12646 0.0 
13.395 7.46326 0.0 
4.22969 4.0905 0.0 
3.9818 4.03131 0.0 
3.96476 4.03852 0.0 
12.6453 6.67224 0.0 
3.97233 4.04194 0.0 
4.73136 3.98545 0.0 
3.99803 4.00953 0.0 
4.00621 4.04562 0.0 
1.12644 3.34247 0.0 
3.92251 4.00785 0.0 
4.86743 3.96552 0.0 
11.0265 3.21536 0.0 
4.11939 4.0545 0.0 
3.96986 3.96095 0.0 
4.12724 3.95998 0.0 
3.96029 4.05566 0.0 
4.93961 4.01137 0.0 
5.04007 4.02119 0.0 
6.04221 4.03003 0.0 
13.2653 2.91651 0.0 
4.00756 4.02287 0.0 
4.67316 3.84438 0.0 
4.23103 3.92099 0.0 
4.98371 4.01321 0.0 
4.79102 4.05549 0.0 
4.0344 3.97647 0.0 
4.06142 3.99821 0.0 
4.27714 4.06751 0.0 
5.182 4.1265 0.0 
4.51823 3.97671 0.0 
4.10608 4.02928 0.0 
5.02032 4.00921 0.0 
4.50985 7.40044 0.0 
4.23776 4.07796 0.0 
4.56534 5.16387 0.0 
5.08398 4.00329 0.0 
5.05919 4.01855 0.0 
2.15923 7.15628 0.0 
4.22633 3.95625 0.0 
4.29207 4.08206 0.0 
4.15397 4.06558 0.0 
5.0468 2.13587 0.0 
7.18887 6.80823 0.0 
1.24078 0.550265 0.0 
9.10545 7.45594 0.0 
2.38032 0.204862 0.0 
13.4553 4.75688 0.0 
4.01517 4.03055 0.0 
3.99882 3.99972 0.0 
4.08056 3.95928 0.0 
4.2094 4.08655 0.0 
4.01562 4.06644 0.0 
4.08409 4.04741 0.0 
3.99908 3.98836 0.0 
7.14694 6.56071 0.0 
4.95841 3.99745 0.0 
5.04095 3.99234 0.0 
9.04106 0.69075 0.0 
4.21507 3.9482 0.0 
4.19583 4.0443 0.0 
4.97222 4.02124 0.0 
2.82978 0.722772 0.0 
4.49438 4.06401 0.0 
3.9934 4.00897 0.0 
4.08759 3.96519 0.0 
11.9473 3.59927 0.0 
5.1327 4.04445 0.0 
11.7512 0.308253 0.0 
4.05754 4.0421 0.0 
4.70977 4.14253 0.0 
4.56626 4.0583 0.0 
4.2165 4.06855 0.0 
3.99602 4.00219 0.0 
3.9901 3.98452 0.0 
4.45947 4.09787 0.0 
5.43808 5.40891 0.0 
4.12306 3.91938 0.0 
4.20099 4.07074 0.0 
4.071 3.97062 0.0 
4.00769 3.94746 0.0 
4.1797 4.07872 0.0 
4.70053 3.97139 0.0 
3.99899 4.01393 0.0 
4.04563 4.05866 0.0 
4.67941 4.01821 0.0 
3.99964 4.01131 0.0 
13.2253 0 0.0 
5.0091 4.00467 0.0 
4.17755 3.91259 0.0 
5.06347 3.99507 0.0 
4.48576 4.0644 0.0 
4.08115 4.04829 0.0 
4.14392 3.99721 0.0 
5.08198 4.04957 0.0 
5.02947 4.00625 0.0 
4.99676 4.00477 0.0 
5.63104 7.16389 0.0 
5.98774 1.99534 0.0 
4.54415 4.06074 0.0 
4.18591 4.0986 0.0 
4.24183 3.96741 0.0 
4.08711 3.98632 0.0 
4.23876 4.10875 0.0 
4.07386 4.04247 0.0 
4.01254 4.0098 0.0 
3.98048 4.05294 0.0 
3.95795 4.02043 0.0 
4.13386 4.04638 0.0 
3.98816 4.01224 0.0 
3.9854 4.04401 0.0 
4.3328 4.07061 0.0 
4.94454 3.99624 0.0 
3.99752 4.02893 0.0 
4.01884 3.99521 0.0 
4.50418 3.97532 0.0 
3.98628 3.99582 0.0 
4.28833 3.96843 0.0 
4.98756 3.96669 0.0 
0.834287 1.27491 0.0 
4.82659 3.99097 0.0 
9.76298 3.43919 0.0 
1.6093 0.843069 0.0 
4.03067 4.02812 0.0 
4.22848 4.0667 0.0 
4.00774 3.99043 0.0 
4.00585 4.11476 0.0 
4.04437 4.03345 0.0 
4.3171 4.12404 0.0 
3.73947 4.14592 0.0 
3.93549 3.94275 0.0 
4.18227 4.06062 0.0 
9.52987 5.94501 0.0 
5.10311 4.0306 0.0 
4.28205 4.09231 0.0 
4.4241 3.97279 0.0 
4.8127 4.03205 0.0 
4.11319 4.02715 0.0 
4.00862 3.98581 0.0 
4.03462 3.97187 0.0 
8.94156 2.98932 0.0 
4.2243 3.97497 0.0 
4.4073 3.87985 0.0 
4.9966 3.99839 0.0 
4.01838 4.02194 0.0 
4.06244 3.97261 0.0 
4.01023 3.99102 0.0 
4.03555 4.04124 0.0 
4.80544 4.03239 0.0 
2.83947 0.395934 0.0 
4.99741 3.99821 0.0 
4.51549 3.976 0.0 
5.18793 4.05304 0.0 
4.50187 3.97587 0.0 
3.98111 4.00805 0.0 
4.07324 4.06871 0.0 
3.99352 3.97666 0.0 
0.747562 5.69493 0.0 
4.27645 4.0532 0.0 
11.7697 0.872626 0.0 
4.81867 4.03024 0.0 
4.25332 4.07611 0.0 
3.98586 3.96653 0.0 
3.84263 3.97274 0.0 
11.3109 3.9311 0.0 
3.98206 3.97395 0.0 
4.93374 4.01349 0.0 
10.2534 5.37821 0.0 
4.2716 1.19918 0.0 
4.20066 4.06181 0.0 
4.02402 4.04636 0.0 
1.81479 6.13328 0.0 
4.00375 4.03912 0.0 
4.06133 4.06985 0.0 
5.04267 4.00787 0.0 
3.99417 4.04189 0.0 
7.6181 7.09785 0.0 
4.71441 7.15979 0.0 
3.99997 3.99241 0.0 
4.41092 4.08744 0.0 
4.18794 4.06401 0.0 
4.88806 3.9932 0.0 
3.98918 4.03714 0.0 
6.02554 0.627646 0.0 
4.01059 4.0357 0.0 
13.1795 7.21937 0.0 
8.61224 0.930403 0.0 
4.00714 3.98811 0.0 
4.00056 4.04248 0.0 
1.05155 0.371395 0.0 
2.48135 1.40934 0.0 
3.9896 4.00463 0.0 
4.88295 4.03493 0.0 
3.98613 3.98439 0.0 
4.07494 4.0438 0.0 
4.00273 4.04763 0.0 
4.02428 4.00868 0.0 
12.053 4.13109 0.0 
4.48428 4.06427 0.0 
4.34852 4.07558 0.0 
4.80645 3.97114 0.0 
4.18965 4.06342 0.0 
4.06568 4.13321 0.0 
3.98643 3.99986 0.0 
4.10232 4.05392 0.0 
4.18842 3.9682 0.0 
3.99581 3.98523 0.0 
4.74823 4.06761 0.0 
4.4371 4.06717 0.0 
3.98481 4.00073 0.0 
3.97761 4.0047 0.0 
6.63975 3.37919 0.0 
8.39153 6.28241 0.0 
4.1351 4.05447 0.0 
3.96283 3.98237 0.0 
4.11077 4.06077 0.0 
3.98558 4.00796 0.0 
4.03576 3.97997 0.0 
4.0176 3.99821 0.0 
4.54864 3.94848 0.0 
5.16627 3.9928 0.0 
10.4873 6.34629 0.0 
14 6.70716 0.0 
0.743811 1.53388 0.0 
4.99712 4.01383 0.0 
4.56039 3.93609 0.0 
4.45118 4.07771 0.0 
9.04276 5.96039 0.0 
4.07076 4.03121 0.0 
4.1366 4.04943 0.0 
3.99705 4.04765 0.0 
5.00029 3.98416 0.0 
4.13843 3.9353 0.0 
4.27037 4.11663 0.0 
6.35796 4.12291 0.0 
4.52311 3.97658 0.0 
3.99903 4.00913 0.0 
4.37236 4.06909 0.0 
4.02241 4.04141 0.0 
3.9487 4.03134 0.0 
4.04181 3.91994 0.0 
4.02972 4.05235 0.0 
4.01026 3.99982 0.0 
4.01777 4.04818 0.0 
5.01829 4.01403 0.0 
4.53235 4.06151 0.0 
4.0266 3.96232 0.0 
11.0101 6.57253 0.0 
4.10695 3.94953 0.0 
4.27578 3.72531 0.0 
13.0064 4.46872 0.0 
4.58135 4.03068 0.0 
4.67258 4.04808 0.0 
4.03778 3.99834 0.0 
10.5425 6.71535 0.0 
4.07489 3.89578 0.0 
4.71005 4.02481 0.0 
4.27242 3.94793 0.0 
4.98817 4.01929 0.0 
4.79781 3.98878 0.0 
3.95357 4.06538 0.0 
4.16271 4.06795 0.0 
4.10175 3.95894 0.0 
4.0792 4.04209 0.0 
4.07155 3.97256 0.0 
4.21379 4.06602 0.0 
4.00572 3.98505 0.0 
4.27017 3.96815 0.0 
8.59946 2.13811 0.0 
4.92589 4.01415 0.0 
4.37091 3.97137 0.0 
3.99904 3.97967 0.0 
3.94862 4.04213 0.0 
4.10796 3.96828 0.0 
4.01577 3.95866 0.0 
4.01453 3.99505 0.0 
4.93345 4.06294 0.0 
4.01348 3.98304 0.0 
13.5307 3.50162 0.0 
2.10866 2.95955 0.0 
4.72428 4.04785 0.0 
8.94038 7.70202 0.0 
2.33056 5.57699 0.0 
5.1145 3.99248 0.0 
2.55382 3.46542 0.0 
4.8833 3.9863 0.0 
4.0176 3.97351 0.0 
10.8478 4.42307 0.0 
5.00794 4.01633 0.0 
3.97614 4.01755 0.0 
4.07623 4.009 0.0 
5.46984 4.17168 0.0 
4.06566 3.79437 0.0 
4.17328 3.96651 0.0 
9.15362 3.83805 0.0 
4.8917 4.01052 0.0 
4.05996 4.02956 0.0 
4.64069 3.98162 0.0 
4.07218 4.06206 0.0 
4.42443 3.97168 0.0 
5.00105 3.99928 0.0 
8.98125 6.17249 0.0 
4.01708 3.97944 0.0 
4.79884 3.98871 0.0 
4.44469 4.0671 0.0 
4.78704 4.01484 0.0 
4.9502 3.99644 0.0 
4.89104 3.99295 0.0 
4.0036 4.0308 0.0 
4.09478 4.0801 0.0 
11.7319 4.54253 0.0 
4.50584 3.96257 0.0 
[...]
<PointData>
  <DataArray type = "Float64" Name="Vitesse" NumberOfComponents="3" format="ascii">
1 0 0.0 
1.00695 0 0.0 
1.00561 0 0.0 
1 0 0.0 
0.750136 0.248202 0.0 
0.840124 0.199927 0.0 
0.999966 0.000643038 0.0 
0.000953866 -0.000229834 0.0 
0 0 0.0 
0.208815 0.00243656 0.0 
0.435525 -0.0907724 0.0 
1.00971 0.000341385 0.0 
1.00833 0.000515932 0.0 
1.01648 -0.0414438 0.0 
0.0076187 -0.000332588 0.0 
0.0434778 -0.0011076 0.0 
1.0521 -0.186726 0.0 
0.082694 -0.0307941 0.0 
0.438749 0.00441605 0.0 
0.0105371 -0.00642266 0.0 
0.241897 0.0052932 0.0 
1.00863 0.000370197 0.0 
0 0 0.0 
0 0 0.0 
7.42629e-118 3.64939e-119 0.0 
1.00953 -0.00166757 0.0 
1.00863 0.00050095 0.0 
0.00712004 0.000606157 0.0 
0 0 0.0 
0.83682 0.359871 0.0 
3.80094e-85 7.93639e-87 0.0 
0 0 0.0 
1.01145 -0.257138 0.0 
0 0 0.0 
0.563278 -0.0374754 0.0 
0.127797 0.0066708 0.0 
0.590483 -0.228914 0.0 
0.0595381 -0.018135 0.0 
0 0 0.0 
0.0419766 -0.00369861 0.0 
0.847477 -0.0154253 0.0 
0.869315 0.348405 0.0 
0.445753 0.117875 0.0 
6.56381e-36 1.02188e-36 0.0 
0.125556 0.0175763 0.0 
0.447751 0.000941614 0.0 
1e-307 1e-307 0.0 
0 0 0.0 
0.620568 -0.446462 0.0 
1.00749 0 0.0 
0.00495305 -0.000486049 0.0 
0.892297 0.344481 0.0 
0.719488 0.0614375 0.0 
4.7272e-103 -4.97264e-104 0.0 
1.00875 0.00045962 0.0 
1.66967e-06 2.84208e-07 0.0 
0.247679 0.00911254 0.0 
0.122161 0.00181467 0.0 
0.673154 0.0994519 0.0 
1.00685 -0.000106411 0.0 
1.00716 -0.000809311 0.0 
0.549545 0.103497 0.0 
0.670778 -0.0829812 0.0 
0 0 0.0 
0 0 0.0 
-6.3128e-271 -6.50818e-274 0.0 
0.0100796 0.00019535 0.0 
0.192676 -0.294178 0.0 
0.00458333 -0.000500103 0.0 
0.000479962 3.2879e-05 0.0 
0.0160928 -0.0089287 0.0 
1.00697 -0.00193999 0.0 
0.135032 -0.0205956 0.0 
1.00798 0 0.0 
8.73115e-06 6.99956e-07 0.0 
0.847532 0.18966 0.0 
9.22605e-189 -4.06124e-190 0.0 
0.736765 -0.0497328 0.0 
0.176152 -0.0172189 0.0 
0.00806669 0.000601058 0.0 
1.00774 0.00122831 0.0 
0.3476 0.00375622 0.0 
0.371271 -0.081637 0.0 
0.775461 -0.0836013 0.0 
1.0239 0.00127206 0.0 
0.362864 -0.00531284 0.0 
0.064953 0.014195 0.0 
0.609267 0.161701 0.0 
0.439337 -0.115876 0.0 
0.962185 -0.0155308 0.0 
1.00631 0 0.0 
0.197388 -0.0263469 0.0 
0.130812 0.00598538 0.0 
0.101924 0.126228 0.0 
0.551742 -0.0627794 0.0 
1.00864 -0.00266975 0.0 
0.935485 0.085524 0.0 
9.3758e-26 7.69161e-27 0.0 
0.464475 0.0773338 0.0 
1.0003 0 0.0 
1.00802 5.38723e-05 0.0 
0.732866 0.334605 0.0 
0.581974 0.0828881 0.0 
1.06405 0.186307 0.0 
1.00574 -0.00367183 0.0 
0.999961 0.00202614 0.0 
0.427109 -0.00562669 0.0 
1e-307 0 0.0 
0.00602471 0.000267485 0.0 
1.00801 -0.00994192 0.0 
0.998608 -0.00132408 0.0 
6.2035e-05 1.8627e-05 0.0 
0 0 0.0 
0.271233 -0.00964658 0.0 
0 0 0.0 
1.00795 0.000136299 0.0 
1.00736 -0.00048573 0.0 
0.130036 0.00481878 0.0 
0.00443751 0.000554791 0.0 
0.646813 0.256026 0.0 
0.0301614 0.00256621 0.0 
0.331177 0.175755 0.0 
6.13319e-05 9.0045e-06 0.0 
1 0 0.0 
6.93953e-05 4.26276e-06 0.0 
0.997284 -0.0032735 0.0 
1.04354 0.152895 0.0 
0.106286 0.018935 0.0 
1.02012 -0.0782583 0.0 
1.00236 -0.00114848 0.0 
0.0772292 -0.00633327 0.0 
-1.72478e-18 2.24909e-19 0.0 
1.05316 -0.132352 0.0 
0.866678 0.00618477 0.0 
0.0191486 -0.0077971 0.0 
0.0632671 0.00426635 0.0 
0.117941 -0.0114192 0.0 
0.367987 0.065118 0.0 
0.98145 -0.0227069 0.0 
0.00923288 -0.000335896 0.0 
0.369238 0.0463875 0.0 
0.848696 -0.355356 0.0 
0.282914 0.0456011 0.0 
0.618563 0.369941 0.0 
-1.80517e-102 1.13498e-103 0.0 
1.0096 -0.00155042 0.0 
1.0072 -0.00046741 0.0 
0.0362423 -9.84215e-05 0.0 
0.182697 -0.0311705 0.0 
0.00297963 0.000314725 0.0 
0 0 0.0 
0.857549 -0.0506366 0.0 
0.907845 0.0321731 0.0 
0.916131 -0.131705 0.0 
0.885306 0.339431 0.0 
0.870302 -0.262255 0.0 
0.0628777 -0.0175679 0.0 
1.00875 -0.000787822 0.0 
0.318687 0.0613173 0.0 
1.10848 0.165469 0.0 
1.00602 -0.000213579 0.0 
0.742581 0.0793978 0.0 
0.646124 0.182002 0.0 
0.723641 0.121206 0.0 
1.00693 -0.000435022 0.0 
0.721127 0.155912 0.0 
0.00845807 0.000351431 0.0 
0.198039 0.178473 0.0 
0.761849 0.327778 0.0 
0.999376 -0.000583652 0.0 
0.791593 -0.010763 0.0 
0.266163 0.0116095 0.0 
1.0091 0.000369602 0.0 
0.140829 0.0247421 0.0 
0.789786 -0.201545 0.0 
0.309152 -0.0208373 0.0 
0.782234 0.135006 0.0 
3.12445e-05 -1.27979e-06 0.0 
0.0786777 -0.0141829 0.0 
0.516822 -0.00508361 0.0 
1.0088 0.000789224 0.0 
0.472404 0.330509 0.0 
1.05841 0.00237325 0.0 
0.946641 -0.0515816 0.0 
0.0230548 -0.00469769 0.0 
0.143435 -0.0145191 0.0 
0.225494 -0.0599183 0.0 
-1.7441e-193 -3.65993e-195 0.0 
2.28496e-12 7.54763e-14 0.0 
0.871944 -0.0444379 0.0 
-1.78398e-52 -2.0476e-53 0.0 
0 0 0.0 
0.0409473 -0.00787624 0.0 
1.00854 0.00129135 0.0 
0.386023 0.0320493 0.0 
1.02495 0.0104953 0.0 
0.110717 0.0045853 0.0 
0.0873164 -0.0093263 0.0 
1.00202 0.00172438 0.0 
0.257086 -0.00265135 0.0 
0.370957 0.0200418 0.0 
0.34645 0.0506438 0.0 
1.01294 -0.00311941 0.0 
1.00973 -0.00100628 0.0 
1.0005 -0.000465435 0.0 
1.00779 -0.000322777 0.0 
1.00202 -0.000375414 0.0 
1.00986 -0.000887265 0.0 
0.600093 0.337252 0.0 
0.0492123 -0.117096 0.0 
0.580932 -0.0881269 0.0 
0.717956 0.0874714 0.0 
0.862379 0.293858 0.0 
0.183303 0.0376959 0.0 
0.479667 -0.44636 0.0 
1.01006 -0.00127709 0.0 
0.000167253 1.3045e-05 0.0 
0.11576 0.014244 0.0 
1.0084 0.00017783 0.0 
0.462271 -0.0133078 0.0 
0 0 0.0 
0.0441584 -0.00693707 0.0 
1.0029 -0.00160398 0.0 
0.00589388 -0.000321719 0.0 
0.29404 0.114203 0.0 
0.277582 -0.0317543 0.0 
1.01147 -0.000503153 0.0 
0.256334 -0.0228043 0.0 
1.00768 7.15037e-05 0.0 
0.316429 0.108039 0.0 
0.984163 -0.0315665 0.0 
9.26322e-05 -5.84946e-06 0.0 
0.158797 0.0176341 0.0 
0.133482 -0.0767919 0.0 
0.595154 -0.347376 0.0 
0.554718 -0.00517975 0.0 
1.01871 -0.00220298 0.0 
1.08957 -0.143442 0.0 
0.290363 0.0325137 0.0 
0.130733 -0.0185122 0.0 
0.924315 -0.302136 0.0 
0.637775 0.0892001 0.0 
0.138956 0.00611514 0.0 
0.312276 0.266774 0.0 
0.908311 0.32801 0.0 
0 0 0.0 
0.216425 0.21692 0.0 
1.00722 0 0.0 
0.0262976 -0.00678498 0.0 
1.07424 -0.0959052 0.0 
0.121802 0.0113152 0.0 
0.000905782 1.62825e-06 0.0 
0.273286 0.0662076 0.0 
-1.62922e-155 -3.42054e-157 0.0 
0.260811 -0.0288863 0.0 
0.0533398 -0.00189874 0.0 
0.0113123 -0.00420531 0.0 
1.0103 0.000279431 0.0 
1.01159 0.00010138 0.0 
0.00585318 -0.000605237 0.0 
1.00287 0.15221 0.0 
0.00936741 0.0003208 0.0 
0 0 0.0 
1.01393 0.114478 0.0 
0.056903 0.018684 0.0 
0 0 0.0 
0.759598 0.198664 0.0 
0.696404 0.04375 0.0 
0 0 0.0 
0.433037 0.110148 0.0 
0.71812 0.219864 0.0 
0.0405536 0.00193634 0.0 
0.00241559 0.000314886 0.0 
0.605882 0.314817 0.0 
0 0 0.0 
0.00657508 0.000519945 0.0 
0.460504 -0.192912 0.0 
0.00751494 0.000492157 0.0 
0.306205 0.020658 0.0 
1.00016 -0.000649295 0.0 
-5.49037e-57 -4.91742e-58 0.0 
1.00866 -0.000547342 0.0 
1.00081 -0.000967489 0.0 
0.0541834 0.0237011 0.0 
0.0595214 0.00375266 0.0 
0 0 0.0 
0.919712 0.197118 0.0 
0.0576401 0.0198683 0.0 
1.04978 0.0737552 0.0 
0.941561 0.0323201 0.0 
0.850175 -0.119643 0.0 
0.00212748 0.000205712 0.0 
1.00871 -0.00104435 0.0 
0.157293 -0.0163591 0.0 
0.643165 0.045715 0.0 
0.000255611 -6.30227e-06 0.0 
0.00421543 -0.000603312 0.0 
0 0 0.0 
0.323028 -0.202598 0.0 
0.52828 -0.153055 0.0 
1.01007 0.000669083 0.0 
8.02228e-85 3.09904e-86 0.0 
1.06162 -0.0221085 0.0 
0.00755228 0.000560503 0.0 
0.0764476 0.0299925 0.0 
0.0914043 -0.0084676 0.0 
0 0 0.0 
0.662233 0.278036 0.0 
0.00163769 -2.95508e-05 0.0 
1.00294 -0.000864893 0.0 
0.0108738 0.000838902 0.0 
0.00397852 0.000324028 0.0 
0.344377 -0.0255339 0.0 
-4.5039e-17 -4.94773e-18 0.0 
0.503387 0.00896165 0.0 
0.950587 0.279877 0.0 
0.709487 -0.378649 0.0 
1.00001 0.00108498 0.0 
-8.19619e-293 -6.84101e-294 0.0 
1.00786 0.000209386 0.0 
0.000267876 -5.29681e-05 0.0 
0.289448 0.0205679 0.0 
0.772468 -0.286985 0.0 
0.887905 -0.0265118 0.0 
0.833097 0.001705 0.0 
0.716538 -0.267974 0.0 
0.0023812 -0.000353317 0.0 
1.00904 -0.00112768 0.0 
1.00738 -0.00294517 0.0 
8.32231e-26 3.43598e-27 0.0 
0.818212 0.365543 0.0 
1.00082 0.00298404 0.0 
0.714613 0.337212 0.0 
0.969111 0.30341 0.0 
0.0660229 -0.00155225 0.0 
0.710777 0.2709 0.0 
1.00904 -0.000731417 0.0 
1.00933 0.00156942 0.0 
0.276155 -0.347513 0.0 
0.377993 -0.00124545 0.0 
0.109264 0.0128112 0.0 
0.00569101 0.000109787 0.0 
0.675669 0.241245 0.0 
1.00895 -0.00024472 0.0 
0.706692 0.375397 0.0 
1.00625 -0.000295815 0.0 
1.0086 0.000259045 0.0 
0.206668 -0.145099 0.0 
0.726718 0.308391 0.0 
1.00035 -0.000264243 0.0 
1.00191 -0.00278983 0.0 
0.344707 -0.0252037 0.0 
0.0600518 -0.00738108 0.0 
0.608483 -0.292808 0.0 
0.116407 0.0353614 0.0 
0.761532 0.305267 0.0 
0 0 0.0 
0.881789 0.000412296 0.0 
0.000689195 2.7302e-05 0.0 
0.150187 0.000748652 0.0 
0.183989 0.00817415 0.0 
0.0824463 0.00990534 0.0 
1.00287 0.207625 0.0 
0.424005 -0.124524 0.0 
0.286197 0.0617233 0.0 
1.1019e-37 4.85175e-39 0.0 
0.579749 -0.434368 0.0 
0.22957 -0.0195293 0.0 
0.00930163 -0.000471473 0.0 
0.448249 -0.101154 0.0 
0.540527 -0.0347181 0.0 
1.00987 0.00312804 0.0 
1.00901 -0.00123922 0.0 
1.81108e-06 1.97307e-07 0.0 
0.712015 -0.137235 0.0 
0.495158 0.105267 0.0 
0.438972 0.0242568 0.0 
2.38935e-163 -4.29017e-164 0.0 
0 0 0.0 
0.37188 0.0102794 0.0 
0.204034 0.0108582 0.0 
1.00795 -0.000652356 0.0 
1.00641 -0.000542216 0.0 
1.00009 -0.000649991 0.0 
0.0329874 -0.011765 0.0 
0.538665 0.011481 0.0 
0.194244 -0.00539757 0.0 
1.00891 -0.00120864 0.0 
0 0 0.0 
5.4991e-106 2.70234e-107 0.0 
0.748116 0.277649 0.0 
0.148777 0.017543 0.0 
0.936451 -0.0979912 0.0 
1.04184 0.0987597 0.0 
0.868275 -0.0101406 0.0 
-3.6379e-49 -2.23453e-50 0.0 
0.1613 0.167693 0.0 
0.0146597 0.000224981 0.0 
0.768185 0.366404 0.0 
0.746518 0.0631563 0.0 
1.0251 -0.227942 0.0 
0.864188 0.354325 0.0 
0 0 0.0 
0.814278 0.356659 0.0 
0.0442454 -0.0132681 0.0 
0.00515774 6.6991e-05 0.0 
0.943273 -0.334476 0.0 
1.00753 -0.000523659 0.0 
0.746463 -0.0906879 0.0 
1.05976 -0.0523278 0.0 
1.01063 -0.000556365 0.0 
4.55163e-189 -1.33164e-190 0.0 
7.19943e-06 -1.97831e-07 0.0 
0 0 0.0 
1.00754 -0.000530921 0.0 
1.05598 -0.174426 0.0 
4.34467e-99 -4.57024e-100 0.0 
0.409686 -0.00334323 0.0 
0.045745 -0.0097662 0.0 
0.00723972 0.000283514 0.0 
0.809829 0.127142 0.0 
0.377911 0.0552952 0.0 
0.454345 -0.0480577 0.0 
4.96679e-11 1.4518e-11 0.0 
0.0329337 -0.00511486 0.0 
0.0816247 0.010888 0.0 
0.497205 -0.353881 0.0 
0.000370236 1.66487e-05 0.0 
1.00941 0.000633527 0.0 
0.000977534 -6.00536e-05 0.0 
3.91726e-06 5.31334e-07 0.0 
0.697695 -0.449155 0.0 
0.767278 0.0872453 0.0 
0.0652729 -0.00482111 0.0 
0.94456 -0.359956 0.0 
0 0 0.0 
0.297468 -0.0272337 0.0 
0.330778 -0.165355 0.0 
1.01249 0.000284297 0.0 
0.998401 -0.00303797 0.0 
0.0360569 -0.00370243 0.0 
1.00783 -0.000185553 0.0 
1.00044 0.00524627 0.0 
0.17224 0.0127402 0.0 
0.995171 -0.00349835 0.0 
0.0674449 0.00328783 0.0 
0.763805 -0.332244 0.0 
1.0116 -0.00102652 0.0 
0.0436878 -0.0166939 0.0 
0.590432 0.0802055 0.0 
-8.30471e-266 -8.56174e-269 0.0 
0.985222 -0.0295438 0.0 
1.0233 -0.10796 0.0 
0.0333021 0.000562678 0.0 
0.936022 -0.000359942 0.0 
1.61157e-65 -1.21418e-66 0.0 
0 0 0.0 
0.00426187 0.000506783 0.0 
0.860392 0.257352 0.0 
0.0144687 -0.000343311 0.0 
0.00978165 0.004298 0.0 
1.00874 -0.00109339 0.0 
0.476223 -0.203275 0.0 
0.0082072 0.0001185 0.0 
0.0135952 -0.000200163 0.0 
2.99154e-98 -3.09499e-99 0.0 
0.0039589 0.000125674 0.0 
0.00896142 0.000323032 0.0 
0.639242 0.360512 0.0 
1.00651 0.25617 0.0 
1.01185 -0.000276687 0.0 
0.169923 0.00593169 0.0 
0.00495791 -0.000681414 0.0 
0.381309 -0.025177 0.0 
0 0 0.0 
-5.04703e-88 -2.48149e-88 0.0 
1.01007 -0.294992 0.0 
0.0486407 -0.00325878 0.0 
0.60898 -0.0165887 0.0 
0 0 0.0 
0.977567 0.106362 0.0 
1.00786 0.000127157 0.0 
0.321657 0.166533 0.0 
0.815747 0.0548568 0.0 
0.537754 -0.141377 0.0 
1.0096 0.00265296 0.0 
0.99963 0.000743457 0.0 
1.009 -0.00141152 0.0 
0.78072 0.00429912 0.0 
0.540214 0.299588 0.0 
-2.36034e-136 -1.56898e-136 0.0 
0.838374 0.0462624 0.0 
5.80109e-74 4.44513e-75 0.0 
2.74212e-66 9.3106e-67 0.0 
0.999987 0.000655164 0.0 
0.982918 0.0806134 0.0 
0.604598 -0.0877593 0.0 
0.726735 0.191063 0.0 
1.00713 0 0.0 
0.67747 0.198945 0.0 
-3.58678e-254 -3.69779e-257 0.0 
0.500301 0.151529 0.0 
6.19407e-303 4.22155e-304 0.0 
5.81244e-164 1.06011e-164 0.0 
0.0029807 -0.000453074 0.0 
1.03619 -0.273169 0.0 
0.59551 -0.0746663 0.0 
1.91288e-42 -8.01457e-44 0.0 
0.316145 0.169096 0.0 
0.536585 -0.0629651 0.0 
0.373862 -0.0862787 0.0 
0.240066 -0.00717292 0.0 
1.09314 -0.0946535 0.0 
0 0 0.0 
0.336117 -0.0681404 0.0 
0.245006 0.0446288 0.0 
1.00799 -0.0444622 0.0 
0.448618 -0.0259956 0.0 
0.0300689 0.00115088 0.0 
0.00445741 -0.000119336 0.0 
0.737015 0.0904239 0.0 
1.00767 -0.00349127 0.0 
0 0 0.0 
0.0232321 -0.000958833 0.0 
0.00480675 0.000529697 0.0 
1.01064 0.270774 0.0 
0.692731 -0.288725 0.0 
0.665241 -0.216506 0.0 
1.00947 -0.0016132 0.0 
0.335018 -0.00893379 0.0 
-3.48928e-254 -3.59727e-257 0.0 
2.52157e-05 1.73819e-06 0.0 
0.0772611 0.0224661 0.0 
0.218018 -0.00835676 0.0 
1.00996 0.000907043 0.0 
0.0159622 -0.000674866 0.0 
-2.83477e-209 -2.92251e-212 0.0 
0.117465 -0.0214239 0.0 
1.00003 0.0005119 0.0 
0.745773 -0.428924 0.0 
1.0134 -0.00501221 0.0 
0.337854 0.0649501 0.0 
2.79874e-05 2.70305e-06 0.0 
0.0528036 0.00959124 0.0 
0.0480948 0.00948979 0.0 
0.819847 -0.245354 0.0 
-1.09302e-123 -4.33912e-125 0.0 
0.334803 -0.349952 0.0 
0.450081 -0.249988 0.0 
0.774815 0.0208016 0.0 
0.900656 0.277792 0.0 
0.0330417 -0.0149421 0.0 
0.0604197 0.0152023 0.0 
0.844259 -0.00865686 0.0 
0.802629 -0.352464 0.0 
0.00572473 0.000814664 0.0 
0.0314173 0.00124342 0.0 
0 0 0.0 
0.0335465 -0.00305345 0.0 
1.00742 -0.000254353 0.0 
8.07918e-48 1.94883e-48 0.0 
8.8311e-26 1.30084e-26 0.0 
0.644994 -0.0095946 0.0 
0.22757 -0.0767586 0.0 
1.00777 9.54806e-05 0.0 
9.3261e-36 -3.55135e-37 0.0 
0.00143305 -0.000363643 0.0 
1.00953 0.000527635 0.0 
0.920835 0.0351479 0.0 
0 0 0.0 
1.09212 0.0115864 0.0 
1.00858 0.000175319 0.0 
1.00051 0.000590833 0.0 
7.76033e-09 2.25338e-09 0.0 
1.01029 0.00134111 0.0 
0.00311962 -0.000171559 0.0 
0.225708 0.0235335 0.0 
0 0 0.0 
6.04765e-23 -1.04447e-23 0.0 
1.00005 0.00161496 0.0 
0.172421 0.00737954 0.0 
0.345569 -0.0280279 0.0 
0.968884 -0.341789 0.0 
1.00832 7.95033e-05 0.0 
0.129534 0.00427919 0.0 
0.939806 -0.176112 0.0 
0.161476 0.0057539 0.0 
0.975697 -0.0367238 0.0 
0.849639 0.330461 0.0 
0.339162 -0.245617 0.0 
0.484939 -0.0351942 0.0 
1.00917 0.000400224 0.0 
0.974924 0.175217 0.0 
0.83909 0.349187 0.0 
0.561396 -0.208372 0.0 
0.805973 0.165405 0.0 
-5.24123e-176 2.61708e-176 0.0 
1.04957 -0.147495 0.0 
1.02846 -0.0382256 0.0 
0.072312 -0.00824973 0.0 
1.01103 -0.00133246 0.0 
0.243404 0.237866 0.0 
1.00001 -0.000537059 0.0 
0.981271 0.00742932 0.0 
0.00427761 0.000266217 0.0 
0.616205 -0.11717 0.0 
7.30362e-36 -1.44175e-37 0.0 
1.12739 0.0494113 0.0 
0.563489 0.0546923 0.0 
3.80635e-24 5.91709e-25 0.0 
0.0394908 0.00662817 0.0 
0.158386 -0.25215 0.0 
1.04026 -0.200689 0.0 
0.499672 -0.024223 0.0 
0.000529681 1.4001e-05 0.0 
7.60647e-82 -2.748e-82 0.0 
0.214522 -0.0201675 0.0 
0 0 0.0 
1.07085 -0.0275091 0.0 
0.793476 0.00795619 0.0 
0 0 0.0 
0.0140608 0.000940458 0.0 
0.661613 0.00731755 0.0 
0.843305 0.341904 0.0 
0.656265 0.0239714 0.0 
0.595119 -0.0261952 0.0 
0.101576 -0.00957353 0.0 
0.353753 0.090347 0.0 
0.742216 0.301838 0.0 
0.0211675 0.00123706 0.0 
4.52354e-76 9.44517e-78 0.0 
0.619322 0.0106721 0.0 
1.00054 0.00243537 0.0 
0.93091 -0.233063 0.0 
1.00683 -0.0966486 0.0 
0.00285783 -0.000166937 0.0 
0.294934 0.012903 0.0 
2.81752e-96 -2.96381e-97 0.0 
0.0759577 0.0157014 0.0 
0.859646 -0.402748 0.0 
5.23723e-159 -5.09227e-160 0.0 
1.00796 9.87987e-05 0.0 
-3.38467e-298 -3.48942e-301 0.0 
-2.53283e-268 -3.46454e-269 0.0 
0.155595 0.115326 0.0 
1.01208 -0.00196234 0.0 
0.678246 -0.367767 0.0 
1.00492 0.00113596 0.0 
1.08549 -0.181834 0.0 
0.593681 -0.143353 0.0 
1.0148 0.0160206 0.0 
-6.95059e-141 1.24851e-141 0.0 
0.986262 -0.00592765 0.0 
0.840915 0.0242784 0.0 
1.00924 0.000222951 0.0 
1.00925 0.000460405 0.0 
1.00052 0.00427169 0.0 
0.07123 0.00640223 0.0 
-8.04358e-130 1.27695e-130 0.0 
0.999951 -0.000488839 0.0 
0.322549 0.261562 0.0 
0.207753 -0.158431 0.0 
0.118744 0.0273393 0.0 
0.113008 0.00202151 0.0 
0.311714 -0.262761 0.0 
0.126158 0.00614417 0.0 
1.00499 -0.00288348 0.0 
0.000885383 -0.000103791 0.0 
0.470131 -0.0260623 0.0 
1.00854 -0.00112938 0.0 
0.887697 0.00254805 0.0 
0.0375121 -0.00859769 0.0 
0.173231 -0.0263099 0.0 
0.246451 -0.213427 0.0 
-5.42745e-28 -1.43774e-28 0.0 
0.999232 -0.00103169 0.0 
0.0257605 -0.000394327 0.0 
1.40775e-05 -8.4517e-07 0.0 
0.322547 0.107889 0.0 
0.967325 0.265422 0.0 
0.0574412 0.0131991 0.0 
0.015541 0.000862365 0.0 
0.524048 0.0958803 0.0 
0.494333 0.235318 0.0 
1.02148 -0.0190545 0.0 
0.0665587 0.00942435 0.0 
0.826885 -0.361386 0.0 
0.9913 -0.0213479 0.0 
0.88407 -0.014322 0.0 
0.00835379 0.000354422 0.0 
1.00901 0.000407375 0.0 
-2.12746e-15 -1.3338e-16 0.0 
0.998857 -0.000151065 0.0 
5.98264e-122 -2.06255e-122 0.0 
2.44451e-31 -4.82901e-33 0.0 
0 0 0.0 
0.00511815 0.00037443 0.0 
0.111764 0.0111001 0.0 
1.00814 0.000508804 0.0 
0.023413 -0.00430092 0.0 
0.0728094 0.00198748 0.0 
0.0191616 0.000961484 0.0 
0.154492 0.00790911 0.0 
1.09372e-95 1.496e-96 0.0 
0.0578805 -0.00247429 0.0 
0.0118312 0.00109857 0.0 
0.0082462 0.00057143 0.0 
0.2844 -0.0317352 0.0 
1.00989 0.000839825 0.0 
1.00388 0.00268811 0.0 
0.0408181 -3.70105e-05 0.0 
0.990982 0.0174313 0.0 
0.00623892 0.00075544 0.0 
0.906814 -0.391614 0.0 
0.846886 -0.0286879 0.0 
0.838737 -0.332102 0.0 
0.232443 0.127751 0.0 
0.120422 0.0111323 0.0 
0.0258095 0.00669154 0.0 
1.00684 -0.000257629 0.0 
1.01512 0.00245055 0.0 
0.72766 0.0570867 0.0 
0.784435 -0.277474 0.0 
0.00946783 0.000404363 0.0 
0.113089 -0.00803253 0.0 
1.00023 -0.00128624 0.0 
0.0821892 0.0140014 0.0 
-2.49248e-222 -4.37877e-226 0.0 
0.0292367 0.00915493 0.0 
0.00401487 -0.000499325 0.0 
0.0425314 -0.00329446 0.0 
0.00320842 0.000276475 0.0 
1.02129 0.00554736 0.0 
0.155209 0.0224143 0.0 
0.036243 -0.0101626 0.0 
1.16707e-175 1.94915e-175 0.0 
1.01989 -0.130761 0.0 
1.08779 0.109878 0.0 
0.837469 -0.419858 0.0 
0.168842 -0.0821661 0.0 
8.39356e-11 -6.07179e-12 0.0 
0.83658 -0.418731 0.0 
3.88533e-175 6.48901e-175 0.0 
0.048081 -0.0165932 0.0 
0.00410397 0.000425843 0.0 
0.415716 -0.0389513 0.0 
0.394459 0.0481566 0.0 
0.999951 0.00142648 0.0 
0.999618 -0.000487217 0.0 
1.00108 -0.000799303 0.0 
0.0283906 0.000830834 0.0 
1.0094 0 0.0 
0 0 0.0 
0.401075 -0.0465423 0.0 
0.51553 0.0580693 0.0 
0.999985 -0.00059636 0.0 
0.00475273 0.000396975 0.0 
0.571556 0.0107205 0.0 
0.653747 -0.353737 0.0 
0.995088 -0.0241704 0.0 
0.13033 -0.019894 0.0 
0.123602 0.020169 0.0 
0.0209578 -0.0101204 0.0 
0.709595 -0.000488243 0.0 
0.999909 -0.000718771 0.0 
0.996988 -0.000370486 0.0 
0.910294 -0.0271421 0.0 
0.0404074 -0.00316596 0.0 
0 0 0.0 
0.516417 -0.0783297 0.0 
0.366835 0.000807257 0.0 
1.11921 0.139354 0.0 
1.00425 -0.00414374 0.0 
0.318428 -0.0275709 0.0 
0.773499 0.0634557 0.0 
0.839442 0.147588 0.0 
1.08711 0.00354437 0.0 
1.01051 0.00761576 0.0 
-3.86918e-70 -1.90238e-70 0.0 
0.552754 0.00115359 0.0 
0.290275 0.0583258 0.0 
0.0176483 0.000226378 0.0 
0.567764 -0.0659895 0.0 
-3.49805e-106 5.56898e-106 0.0 
0.126165 0.0775887 0.0 
0.0223003 -0.000485998 0.0 
1.00648 -0.000412356 0.0 
0.00831145 0.000638455 0.0 
1.03637 -0.10356 0.0 
0.999513 2.47433e-05 0.0 
0.0473492 -0.00032701 0.0 
0.0277463 -0.00371719 0.0 
0.965298 -0.00383854 0.0 
1.00856 0.000265143 0.0 
1.11668 0.0976423 0.0 
0.000106645 -4.02774e-06 0.0 
0.0183448 -0.000313721 0.0 
0.00503772 0.00035045 0.0 
1.00774 0.000346581 0.0 
0.999211 -0.00156877 0.0 
0 0 0.0 
0.209189 0.0262913 0.0 
1.05852 0.00608695 0.0 
0.108346 -0.0634893 0.0 
0.0294898 0.00115611 0.0 
1.24233e-07 8.20975e-09 0.0 
1.10971 0.10724 0.0 
0.0962597 0.0159222 0.0 
0.252371 0.13709 0.0 
1.00643 0 0.0 
0.268312 0.0175306 0.0 
1.00673 -0.000580863 0.0 
0.0801576 -0.0121242 0.0 
0 0 0.0 
1.00911 -0.0013049 0.0 
0.347781 0.0878026 0.0 
1.00799 0.000280155 0.0 