<VTKFile type="UnstructuredGrid" version="0.1" byte_order="LittleEndian">
  <UnstructuredGrid>
    <Piece NumberOfPoints="12702" NumberOfCells="25244">
      <Points>
        <DataArray type = "Float64" NumberOfComponents="3" format="ascii">
0 0 0.0 
14 0 0.0 
14 8 0.0 
0 8 0.0 
4.16782 4.09801 0.0 
4.36755 4.06814 0.0 
4.18062 4.05465 0.0 
10.3864 0.53398 0.0 
4.09208 3.95602 0.0 
4.27592 4.05022 0.0 
4.21166 3.93983 0.0 
3.96554 4.00011 0.0 
12.8838 1.66771 0.0 
4.07387 4.04247 0.0 
12.5949 1.78564 0.0 
4.14952 3.96168 0.0 
4.01274 4.08619 0.0 
4.01323 3.99894 0.0 
4.4535 3.97342 0.0 
4.25007 4.10489 0.0 
4.07966 3.82909 0.0 
5.01074 4.00405 0.0 
5.05288 4.02468 0.0 
4.02607 3.98242 0.0 
4.97388 4.02614 0.0 
4.29731 4.11169 0.0 
2.20773 4.95939 0.0 
4.96284 4.02182 0.0 
4.36723 4.05555 0.0 
5.1486 6.42651 0.0 
8.94873 8 0.0 
4.09682 4.06571 0.0 
0.213584 6.45053 0.0 
4.46732 3.96053 0.0 
4.09533 4.03459 0.0 
4.00922 3.99881 0.0 
3.98577 3.91947 0.0 
4.2041 4.03861 0.0 
4.01927 3.99345 0.0 
4.02807 4.0484 0.0 
4.11094 4.03801 0.0 
12.0552 4.10979 0.0 
4.10251 3.97114 0.0 
4.18702 4.06193 0.0 
3.98196 3.98783 0.0 
4.00147 3.99761 0.0 
4.36023 4.05917 0.0 
4.01706 3.99618 0.0 
4.01385 3.94233 0.0 
4.41749 4.06732 0.0 
13.1046 7.49627 0.0 
3.98751 3.9874 0.0 
4.49422 3.93013 0.0 
3.99575 4.00663 0.0 
4.56487 4.13334 0.0 
3.98164 4.06672 0.0 
4.2628 3.96868 0.0 
1.77828 0 0.0 
3.99442 3.99468 0.0 
4.01647 3.99236 0.0 
4.00942 4.01407 0.0 
4.81854 1.47981 0.0 
4.01121 4.01847 0.0 
4.0339 4.05256 0.0 
4.95624 4.02803 0.0 
4.37806 3.97055 0.0 
4.73977 4.04024 0.0 
12.8359 6.25575 0.0 
4.00436 3.99817 0.0 
4.03028 3.9779 0.0 
3.94629 4.05433 0.0 
5.00785 4.00312 0.0 
10.8833 7.73481 0.0 
14 6.11123 0.0 
4.12413 3.94147 0.0 
12.7782 5.747 0.0 
3.96293 3.99513 0.0 
4.04956 3.95606 0.0 
4.16819 4.06782 0.0 
4.02687 4.02889 0.0 
5.14768 4.0092 0.0 
4.03517 3.98764 0.0 
3.99922 3.99464 0.0 
5.03684 4.01469 0.0 
4.57319 4.05802 0.0 
4.01006 3.98201 0.0 
4.11341 4.04921 0.0 
3.78634 3.5295 0.0 
14 5.21618 0.0 
4.22327 3.96614 0.0 
4.65304 4.05065 0.0 
4.80013 4.01216 0.0 
4.28749 4.07809 0.0 
4.15753 4.05211 0.0 
4.37602 3.78417 0.0 
5.00991 4.10716 0.0 
4.05465 4.0262 0.0 
4.22917 3.98359 0.0 
4.0078 4.0152 0.0 
4.09546 4.05534 0.0 
4.35343 3.94951 0.0 
4.03283 4.02924 0.0 
3.05349 4.57182 0.0 
4.382 8 0.0 
3.98826 4.00843 0.0 
4.30553 3.96832 0.0 
4.87455 4.02201 0.0 
4.08373 4.05666 0.0 
5.00129 3.99352 0.0 
4.63994 3.91313 0.0 
4.08725 4.02188 0.0 
4.27852 0 0.0 
5.04845 4.04311 0.0 
3.81162 3.81839 0.0 
4.0017 4.00679 0.0 
4.22415 4.06461 0.0 
4.13434 4.07811 0.0 
9.23038 3.41876 0.0 
4.49931 4.06327 0.0 
4.57767 3.97816 0.0 
2.77958 2.61137 0.0 
4.94578 3.98227 0.0 
4.35017 3.94589 0.0 
4.48614 3.95905 0.0 
4.16859 4.08565 0.0 
4.207 4.06451 0.0 
5.52872 3.97338 0.0 
4.1741 4.07586 0.0 
4.16384 3.96782 0.0 
3.90393 4.06007 0.0 
4.08345 3.93575 0.0 
4.95182 4.00996 0.0 
4.13709 3.98246 0.0 
4.45491 4.12386 0.0 
3.91267 2.38613 0.0 
4.02873 4.0411 0.0 
4.88146 4.04087 0.0 
4.52479 3.9754 0.0 
4.49136 4.08498 0.0 
7.17799 7.26491 0.0 
4.12124 3.98374 0.0 
3.99486 4.0255 0.0 
4.53406 4.03802 0.0 
4.74584 4.03986 0.0 
4.6794 4.04688 0.0 
4.99458 4.03862 0.0 
4.47128 3.94642 0.0 
4.02244 4.02798 0.0 
4.52606 4.06224 0.0 
4.12635 4.07409 0.0 
0 1.4212 0.0 
4.25778 4.0794 0.0 
4.07973 4.03132 0.0 
4.66487 4.04936 0.0 
4.81937 3.78348 0.0 
4.14691 4.04956 0.0 
5.01331 3.98969 0.0 
4.9842 4.00335 0.0 
6.02468 0 0.0 
4.51469 3.97561 0.0 
4.0644 3.93891 0.0 
4.00754 4.05026 0.0 
4.41647 4.05664 0.0 
4.12613 3.92733 0.0 
4.37449 4.09657 0.0 
3.9815 3.94422 0.0 
4.19206 3.91938 0.0 
5.81702 3.84848 0.0 
3.95799 3.98472 0.0 
4.09641 3.95124 0.0 
4.13114 3.94229 0.0 
4.02352 3.97115 0.0 
3.96293 4.03138 0.0 
4.03505 3.95011 0.0 
4.10515 3.96782 0.0 
4.23532 3.95103 0.0 
4.15667 4.04972 0.0 
3.99252 4.00665 0.0 
4.3744 4.10199 0.0 
4.17636 4.06982 0.0 
4.64283 4.21251 0.0 
3.84962 6.50938 0.0 
4.22861 4.084 0.0 
4.10941 4.04928 0.0 
13.4409 6.96746 0.0 
4.54804 3.97753 0.0 
3.99665 4.0541 0.0 
5.06886 4.12388 0.0 
4.19057 4.05281 0.0 
4.10081 3.94382 0.0 
4.05695 3.98888 0.0 
5.00223 4.00352 0.0 
4.99858 3.99734 0.0 
10.5876 4.17016 0.0 
12.6106 2.36135 0.0 
8.63759 1.20762 0.0 
5.00368 4.02219 0.0 
4.00377 4.08004 0.0 
3.9771 4.03148 0.0 
2.81624 6.10545 0.0 
4.88685 4.02012 0.0 
4.15753 4.10167 0.0 
4.23344 3.92736 0.0 
4.18309 4.12442 0.0 
3.96476 4.03852 0.0 
4.27014 3.96856 0.0 
3.96822 4.02719 0.0 
3.97233 4.04194 0.0 
4.29967 4.07061 0.0 
12.7424 0.71209 0.0 
10.0521 4.76585 0.0 
4.20876 3.92492 0.0 
3.92251 4.00785 0.0 
4.09603 4.05335 0.0 
4.00213 4.00745 0.0 
5.15491 3.95658 0.0 
4.66747 4.04859 0.0 
2.82325 4.50303 0.0 
5.05417 4.0144 0.0 
8.79179 0 0.0 
4.98686 3.9751 0.0 
4.97976 3.99725 0.0 
10.9896 5.75145 0.0 
4.00756 4.02287 0.0 
4.00612 4.04547 0.0 
5.0401 4.02083 0.0 
4.98371 4.01321 0.0 
3.94984 3.93611 0.0 
4.0407 4.01396 0.0 
6.40171 4.0187 0.0 
4.27701 3.96783 0.0 
4.36954 3.83495 0.0 
9.79724 4.60027 0.0 
2.32558 4.53079 0.0 
4.16233 3.96714 0.0 
3.2828 4.99831 0.0 
4.05455 3.94062 0.0 
5.1502 4.05721 0.0 
9.70989 7.75915 0.0 
4.56369 3.9773 0.0 
4.02341 4.03456 0.0 
4.81444 3.98989 0.0 
4.52724 7.41561 0.0 
5.05919 4.01855 0.0 
2.15923 7.15628 0.0 
4.15382 4.06352 0.0 
4.22714 3.92146 0.0 
4.60701 3.95862 0.0 
1.66709 0.298643 0.0 
4.37377 3.94452 0.0 
4.89204 3.99315 0.0 
4.74774 4.04067 0.0 
4.05012 3.98756 0.0 
1.24078 0.550265 0.0 
9.10545 7.45594 0.0 
2.38032 0.204862 0.0 
4.08274 3.92909 0.0 
4.11851 4.05833 0.0 
4.01842 4.0239 0.0 
4.01517 4.03055 0.0 
4.00968 4.01649 0.0 
3.99882 3.99972 0.0 
7.15285 6.80318 0.0 
4.14337 4.03383 0.0 
4.44395 4.05764 0.0 
10.5099 5.53717 0.0 
3.99908 3.98836 0.0 
8.76112 4.31939 0.0 
4.12151 3.94609 0.0 
5.31506 4.13217 0.0 
3.75062 1.29589 0.0 
4.1766 6.89118 0.0 
4.21507 3.9482 0.0 
4.03149 3.93256 0.0 
4.97222 4.02124 0.0 
4.13708 3.96479 0.0 
3.89686 4.49706 0.0 
6.25452 4.08467 0.0 
4.57057 4.04757 0.0 
4.99899 4.00471 0.0 
4.08678 3.96894 0.0 
4.56627 4.02157 0.0 
5.1327 4.04445 0.0 
4.01388 4.0749 0.0 
14 3.23017 0.0 
7.88223 5.55852 0.0 
4.47779 4.09651 0.0 
4.05326 3.97461 0.0 
5.85061 4.74455 0.0 
4.03916 4.05961 0.0 
3.9901 3.98452 0.0 
4.02845 4.16208 0.0 
4.16938 4.06131 0.0 
4.02883 4.00251 0.0 
4.54892 4.08036 0.0 
4.08146 3.94143 0.0 
5.1379 4.02467 0.0 
5.09715 3.97427 0.0 
11.9484 3.60477 0.0 
4.1797 4.07872 0.0 
3.92694 4.12671 0.0 
4.49108 4.06455 0.0 
4.72789 3.98605 0.0 
11.6188 2.25469 0.0 
4.00075 3.88528 0.0 
3.59386 3.60045 0.0 
13.2253 0 0.0 
2.14809 1.04438 0.0 
3.987 4.01082 0.0 
7.74861 1.76701 0.0 
4.2489 4.09629 0.0 
5.06347 3.99507 0.0 
4.89352 4.04485 0.0 
4.25128 4.07504 0.0 
5.00914 4.01319 0.0 
5.08198 4.04957 0.0 
5.02947 4.00625 0.0 
4.67512 4.07534 0.0 
0.782577 7.79023 0.0 
4.08531 4.2151 0.0 
4.03924 3.96186 0.0 
4.25233 4.156 0.0 
4.42698 4.0678 0.0 
4.66315 4.02775 0.0 
7.11829 1.95635 0.0 
4.08711 3.98632 0.0 
3.99883 4.01382 0.0 
4.30449 4.02972 0.0 
4.01133 4.04738 0.0 
10.5905 1.69389 0.0 
5.00749 4.02107 0.0 
4.00502 3.98619 0.0 
4.00036 4.02872 0.0 
4.57948 0 0.0 
6.01847 7.37227 0.0 
4.84142 3.97764 0.0 
4.13381 4.04659 0.0 
4.59198 3.97923 0.0 
4.09948 4.05196 0.0 
3.99752 4.02893 0.0 
4.01884 3.99521 0.0 
4.26259 4.0847 0.0 
3.98628 3.99582 0.0 
10.919 6.03996 0.0 
4.16811 4.05496 0.0 
4.63411 3.98117 0.0 
4.19353 4.06147 0.0 
4.01204 4.00974 0.0 
4.9921 3.96662 0.0 
4.06573 3.95915 0.0 
4.01746 4.04096 0.0 
4.43336 3.97252 0.0 
8.1554 7.24604 0.0 
5.00546 4.00308 0.0 
4.00774 3.99043 0.0 
4.91724 4.142 0.0 
3.98163 4.03116 0.0 
7.57886 3.99545 0.0 
3.80258 4.15956 0.0 
4.28134 3.96704 0.0 
4.05428 3.97126 0.0 
5.0218 3.98124 0.0 
4.19511 4.06513 0.0 
4.09244 4.64297 0.0 
4.0766 3.95386 0.0 
5.10311 4.0306 0.0 
4.10096 4.01608 0.0 
5.07095 2.11145 0.0 
3.93422 3.94134 0.0 
11.821 3.46845 0.0 
13.4125 7.46568 0.0 
3.98027 4.05285 0.0 
4.17673 3.9128 0.0 
4.38244 4.07003 0.0 
4.11541 4.07779 0.0 
11.6144 4.94894 0.0 
7.56899 0.640022 0.0 
4.04077 3.99338 0.0 
4.27729 4.03513 0.0 
4.10356 3.92407 0.0 
4.28005 4.07675 0.0 
3.88907 3.91145 0.0 
9.98194 1.72001 0.0 
8.71255 5.22412 0.0 
4.11635 4.07058 0.0 
3.99833 4.00152 0.0 
4.58978 4.05677 0.0 
4.15637 4.11693 0.0 
4.41667 3.97064 0.0 
5.18793 4.05304 0.0 
11.4889 4.72509 0.0 
4.72592 4.06303 0.0 
4.2894 4.08496 0.0 
3.98111 4.00805 0.0 
4.04032 3.98395 0.0 
3.99352 3.97666 0.0 
8.28914 6.82388 0.0 
10.6098 6.02819 0.0 
4.67002 3.84867 0.0 
4.97598 3.98442 0.0 
3.98468 3.9804 0.0 
4.27492 4.05293 0.0 
4.10308 3.95678 0.0 
4.11106 4.08006 0.0 
3.99417 4.00943 0.0 
10.2405 6.57487 0.0 
4.25734 3.90753 0.0 
12.3354 6.04076 0.0 
4.22626 4.02117 0.0 
3.98206 3.97395 0.0 
12.9901 3.16776 0.0 
5.55936 4.16355 0.0 
4.56542 4.05907 0.0 
4.23654 4.06716 0.0 
4.77338 4.03589 0.0 
10.6886 5.10605 0.0 
4.83077 4.0652 0.0 
4.00375 4.03912 0.0 
4.78433 4.03578 0.0 
3.99121 4.03339 0.0 
3.99417 4.04189 0.0 
4.87981 4.02055 0.0 
4.01284 4.02548 0.0 
6.65694 6.21936 0.0 
4.91478 3.93767 0.0 
12.4859 4.19622 0.0 
4.54692 4.06049 0.0 
4.01643 4.04404 0.0 
4.3525 4.04917 0.0 
4.04634 3.9688 0.0 
3.98918 4.03714 0.0 
4.30033 3.01864 0.0 
5.57973 3.91097 0.0 
4.01059 4.0357 0.0 
4.61893 4.05408 0.0 
5.09271 4.07101 0.0 
4.09975 3.95651 0.0 
4.13306 4.06692 0.0 
4.00056 4.04248 0.0 
1.05155 0.371395 0.0 
5.35539 3.88763 0.0 
3.99729 4.00013 0.0 
3.9896 4.00463 0.0 
5.38522 6.64659 0.0 
3.98613 3.98439 0.0 
4.61367 3.97948 0.0 
4.28188 3.96813 0.0 
4.2928 4.08281 0.0 
4.00273 4.04763 0.0 
4.02428 4.00868 0.0 
3.98817 4.01223 0.0 
2.46283 1.41429 0.0 
7.2855 2.15198 0.0 
4.16627 4.06136 0.0 
4.83176 4.01034 0.0 
4.33565 4.04376 0.0 
9.88591 3.31862 0.0 
3.92579 4.02157 0.0 
4.55873 4.04307 0.0 
3.98643 3.99986 0.0 
4.73091 4.0531 0.0 
4.11784 4.05113 0.0 
3.99581 3.98523 0.0 
4.0262 4.02656 0.0 
0.970073 0 0.0 
3.98481 4.00073 0.0 
3.97761 4.0047 0.0 
4.8799 4.0212 0.0 
3.5707 7.18501 0.0 
4.23501 3.97559 0.0 
4.27768 4.09543 0.0 
4.11077 4.06077 0.0 
4.75845 3.40439 0.0 
5.04298 4.00764 0.0 
[...]
<PointData>
  <DataArray type = "Float64" Name="Vitesse" NumberOfComponents="3" format="ascii">
1 0 0.0 
1.00473 0 0.0 
1.00219 0 0.0 
1 0 0.0 
1.02922 0.17264 0.0 
2.04501e-09 6.1004e-11 0.0 
0 0 0.0 
1.00718 0.000184319 0.0 
0.623106 -0.0823041 0.0 
0 0 0.0 
0.662464 -0.0289854 0.0 
0.645795 -0.0592593 0.0 
1.00673 0.00144489 0.0 
0.0568605 0.0186869 0.0 
1.00705 0.00124569 0.0 
0.199252 -0.00765927 0.0 
0.891103 0.244741 0.0 
0 0 0.0 
0.00502088 0.000715725 0.0 
0.948248 0.0976147 0.0 
1.03931 -0.123195 0.0 
0.0294628 -0.0048578 0.0 
0.0999723 -0.0149471 0.0 
4.62917e-135 -1.3421e-135 0.0 
0.0663685 -0.00993267 0.0 
0.957217 0.0724724 0.0 
0.998312 0.004754 0.0 
0.0418983 -0.00613656 0.0 
0 0 0.0 
1.01244 0.00156239 0.0 
1.00731 0 0.0 
0.78074 0.195949 0.0 
1 0.000249689 0.0 
0.185785 0.00559405 0.0 
0 0 0.0 
0 0 0.0 
0.916388 -0.198701 0.0 
0 0 0.0 
0 0 0.0 
0.835676 0.359016 0.0 
0 0 0.0 
0.899804 -0.00415454 0.0 
5.29845e-10 -5.08764e-11 0.0 
0.0393714 0.00546201 0.0 
0.590397 -0.228458 0.0 
1.39075e-08 -2.9451e-08 0.0 
0 0 0.0 
0 0 0.0 
0.952643 -0.28956 0.0 
-1.68012e-28 -4.18029e-30 0.0 
1.00379 -0.000782608 0.0 
0.561389 -0.297555 0.0 
0.625337 0.00749977 0.0 
0.188474 0.0800369 0.0 
0.963338 -0.0107031 0.0 
0.807205 0.198133 0.0 
3.43202e-41 1.4642e-42 0.0 
1.00113 0 0.0 
0.329909 -0.325645 0.0 
0 0 0.0 
-2.74693e-198 -8.83539e-199 0.0 
1.00952 -0.00271945 0.0 
0.135561 0.096689 0.0 
0.867812 0.34915 0.0 
0.0654718 -0.00882214 0.0 
0.0091301 -2.31157e-05 0.0 
-4.20459e-13 5.31747e-14 0.0 
1.00474 -0.00262266 0.0 
-1.10089e-29 2.39079e-29 0.0 
0.211711 -0.0685106 0.0 
0.7953 0.101402 0.0 
0.0248844 -0.0047891 0.0 
1.00603 -0.000164992 0.0 
1.00226 -0.00387623 0.0 
0.871033 -0.0986552 0.0 
1.00596 -0.00333401 0.0 
0.670797 -0.0828111 0.0 
0.933962 -0.234481 0.0 
0.343566 0.0462441 0.0 
0.259988 0.134794 0.0 
0.150432 0.000681813 0.0 
-1.87005e-138 5.4047e-139 0.0 
0.199841 -0.294162 0.0 
0.0618931 -0.00937251 0.0 
0.00154793 -0.000115026 0.0 
0.536771 -0.309451 0.0 
-1.18366e-25 -2.15899e-26 0.0 
0.990246 -0.0375234 0.0 
0.999527 -0.00938327 0.0 
0.0328505 0.000934344 0.0 
0.00036379 -2.23477e-05 0.0 
0 0 0.0 
0.273936 0.0139231 0.0 
-2.06607e-115 -2.88361e-116 0.0 
1.07144 -0.0361408 0.0 
0.737384 -0.0498497 0.0 
0 0 0.0 
2.07641e-201 1.3815e-202 0.0 
0.084275 0.0802324 0.0 
0.425749 0.106081 0.0 
0.347457 0.00382857 0.0 
0.0902352 0.037523 0.0 
0.991208 0.0110755 0.0 
1.0078 0 0.0 
0.395563 0.0487825 0.0 
0.0119216 0.00053265 0.0 
3.15069e-05 -4.24763e-06 0.0 
0.609948 0.161982 0.0 
0.0643073 0.0140292 0.0 
0.792541 0.0125856 0.0 
1.49327e-221 -1.43989e-222 0.0 
1.0063 0 0.0 
0.197372 -0.0263056 0.0 
0.950479 -0.0524649 0.0 
1.90422e-06 3.04903e-06 0.0 
1.37634e-71 1.74479e-72 0.0 
0.85123 0.167758 0.0 
1.0102 0.00133166 0.0 
0.00078146 -3.06583e-05 0.0 
0.00959729 0.00107041 0.0 
0.999836 -0.00625641 0.0 
0.133945 0.00663092 0.0 
0.412711 0.00291118 0.0 
0.212236 0.0064708 0.0 
0.85742 0.136942 0.0 
0.0538894 0.00412707 0.0 
0.449724 0.0115872 0.0 
0.581927 0.0827802 0.0 
3.12771e-06 1.81972e-08 0.0 
0.848547 0.0561898 0.0 
1.06107 -0.19064 0.0 
0.00125611 -0.00021283 0.0 
-2.33822e-235 5.51715e-237 0.0 
0.933816 0.0111735 0.0 
1.00795 -0.00984808 0.0 
0.731572 0.331907 0.0 
0.0941473 -0.0107962 0.0 
0.0155218 0.000860605 0.0 
0.32699 -0.00998818 0.0 
1.00917 -0.000630732 0.0 
0 0 0.0 
0.5654 0.28735 0.0 
-1.40143e-160 -1.25116e-161 0.0 
0.00075583 -7.35648e-05 0.0 
1.78343e-52 -9.54179e-54 0.0 
0.145571 -0.0208956 0.0 
0.393446 0.00827099 0.0 
0.334689 0.175483 0.0 
0.00765964 -2.67853e-05 0.0 
0.802298 0.16402 0.0 
1 0 0.0 
0.373945 0.0278245 0.0 
8.17963e-101 1.43092e-101 0.0 
0.000185885 -1.65203e-05 0.0 
1.05466 0.0102462 0.0 
-2.23859e-182 -4.45066e-183 0.0 
0.105565 0.0188352 0.0 
6.50854e-05 -5.6355e-06 0.0 
1.00848 0 0.0 
0.00743687 0.000655298 0.0 
1.06047 -0.227751 0.0 
0.788409 0.317668 0.0 
1e-307 1e-307 0.0 
1.05257 -0.132331 0.0 
0.587705 0.0135325 0.0 
0.85915 -0.227928 0.0 
1.01864 -0.078396 0.0 
0.974084 0.0122823 0.0 
0.719688 -0.113184 0.0 
0.753926 -0.102271 0.0 
0.825954 -0.0853726 0.0 
0.76132 -0.290428 0.0 
0.706734 0.0958748 0.0 
1.01744 -0.302509 0.0 
0.0940675 -0.00899457 0.0 
0.372062 -0.00607197 0.0 
0 0 0.0 
0.283275 0.0452797 0.0 
0.691603 0.0193733 0.0 
0.371643 0.0482272 0.0 
1.09937 -0.00873016 0.0 
1.00805 0.00496804 0.0 
0.585981 0.0587614 0.0 
1.32236e-13 2.57998e-14 0.0 
1.00339 -0.00179221 0.0 
0.000866844 9.58167e-05 0.0 
0.777421 0.263424 0.0 
0.858142 -0.0507092 0.0 
0 0 0.0 
0.915764 -0.13122 0.0 
0 0 0.0 
0.014651 -0.00921198 0.0 
0.0240348 0.00387564 0.0 
0.928186 -0.00436866 0.0 
1.00721 0.00150965 0.0 
1.00834 0.000617119 0.0 
0.0631559 -0.0176387 0.0 
0.864995 0.239122 0.0 
0.661492 0.154882 0.0 
1.00317 0.0057786 0.0 
3.65949e-05 -5.51232e-06 0.0 
1.06505 0.18922 0.0 
0.857961 -0.0406149 0.0 
1.10648 0.168565 0.0 
0.72417 0.121282 0.0 
-2.84285e-29 -1.23039e-30 0.0 
0.673439 0.0992166 0.0 
0.721741 0.155926 0.0 
0.0562575 0.00075273 0.0 
1.00627 0.000558734 0.0 
1.00792 -0.0029325 0.0 
0.933822 -0.057882 0.0 
0.792607 -0.0106245 0.0 
0.329307 0.0825219 0.0 
1.90909e-06 2.0208e-06 0.0 
0.446972 0.0283819 0.0 
3.66661e-05 -9.05476e-07 0.0 
0.992448 0.00716594 0.0 
0.0771827 -0.00653142 0.0 
1.0078 0 0.0 
0.225103 0.0161181 0.0 
0.00938626 0.000586582 0.0 
1.00742 -0.00161119 0.0 
0.474106 0.331013 0.0 
0.761249 0.327479 0.0 
0.0777155 -0.0140589 0.0 
0.0231656 -0.00472857 0.0 
0.85908 -0.146436 0.0 
0 0 0.0 
0.561046 -0.00275943 0.0 
0.0102975 -5.51565e-05 0.0 
1.08436 -0.0356864 0.0 
1.00881 -0.00241752 0.0 
0.996286 0.00402359 0.0 
0.0223584 -0.00119026 0.0 
0.999193 0.0152307 0.0 
1.05498 -0.248774 0.0 
0.356648 -0.029925 0.0 
1.00679 -0.000175096 0.0 
0.0127617 0.000893949 0.0 
0.610677 0.305859 0.0 
0.00487857 0.00059225 0.0 
1.00848 0.00120454 0.0 
0.0873196 -0.00949242 0.0 
1.00202 0.00172172 0.0 
0.268934 0.0432216 0.0 
0.946379 -0.0533687 0.0 
0.253265 0.00906722 0.0 
1.00092 -0.000361214 0.0 
0.431116 0.00415393 0.0 
0.00746946 0.000565208 0.0 
0.00588433 -0.000584044 0.0 
8.6156e-106 -2.8552e-106 0.0 
1.00049 -0.000465521 0.0 
1.00734 -0.000447706 0.0 
1.00202 -0.000374744 0.0 
1.08 -0.194878 0.0 
0.320638 0.0603861 0.0 
0.221594 0.106475 0.0 
0.603244 0.336691 0.0 
0.0716364 0.0534344 0.0 
0.0491208 -0.118175 0.0 
1.00969 -0.00111333 0.0 
0 0 0.0 
3.81027e-80 -9.60908e-82 0.0 
1.00806 -0.0017017 0.0 
0.478421 -0.446436 0.0 
1.00981 -0.00315269 0.0 
0.771412 -0.0836563 0.0 
0.897713 -0.0379494 0.0 
1.00574 -0.00358468 0.0 
1.00845 0.00302934 0.0 
0.462561 -0.0139084 0.0 
1.0079 -0.260827 0.0 
0.044476 -0.00688138 0.0 
0.123189 -0.00681366 0.0 
0.998203 0.0520353 0.0 
0.7323 -0.0105228 0.0 
1.89222e-65 -6.24378e-67 0.0 
0.0140284 -0.00717453 0.0 
0.116281 -0.0143104 0.0 
-1.30112e-122 -1.33018e-123 0.0 
0.255923 -0.0228877 0.0 
0.875085 0.269972 0.0 
1.0127 0.00699055 0.0 
1.00999 -0.00248512 0.0 
0.525413 -0.00789333 0.0 
0.0608137 -0.0211903 0.0 
1.01565 -0.0101166 0.0 
0.910625 0.337488 0.0 
0.594795 -0.346658 0.0 
0.973884 0.16828 0.0 
0.0908036 0.0118149 0.0 
0 0 0.0 
0.271327 -0.0133673 0.0 
1.02169 -0.184923 0.0 
0.161766 -0.0100314 0.0 
0.27816 0.023896 0.0 
1.00674 3.01821e-05 0.0 
0.637981 0.0897248 0.0 
0.898368 0.106706 0.0 
0.00901035 -0.000754155 0.0 
2.66815e-50 9.69023e-52 0.0 
1.00774 0.000617093 0.0 
0.966697 -0.168942 0.0 
0.981338 -0.0254413 0.0 
1.00564 0 0.0 
1.00146 -0.0016907 0.0 
0.436783 0.0787077 0.0 
1.0093 0.000912949 0.0 
0.810791 0.0790017 0.0 
0.121147 0.0110794 0.0 
0.127796 -0.0139736 0.0 
0.264242 0.0210633 0.0 
0.0361916 -0.0153085 0.0 
0.260565 -0.0288747 0.0 
0.0532406 -0.00206038 0.0 
0.271111 -0.0193774 0.0 
1.00024 0.000136763 0.0 
1.02368 0.142202 0.0 
0.876664 -0.253119 0.0 
1.1208 0.117543 0.0 
0.0107672 -9.14799e-05 0.0 
0 0 0.0 
1.00998 0.0010299 0.0 
0 0 0.0 
0.311144 0.264747 0.0 
-4.27143e-182 1.00797e-183 0.0 
0.788648 0.341424 0.0 
1.00775 0.000583503 0.0 
0.0598177 -0.0182134 0.0 
0.45545 -0.347952 0.0 
0.608775 0.340677 0.0 
1.00694 0 0.0 
1.00987 -8.79468e-05 0.0 
0.133836 0.00599512 0.0 
0 0 0.0 
0.00453028 0.000555936 0.0 
0.222525 0.0523273 0.0 
0.607072 0.314981 0.0 
0 0 0.0 
0.505712 0.0383476 0.0 
0.460964 -0.192691 0.0 
1.00713 -0.00132855 0.0 
-1.00639e-103 -1.40829e-104 0.0 
0.00438472 0.000470632 0.0 
-8.02659e-21 -2.64943e-22 0.0 
0 0 0.0 
0.308069 0.0213678 0.0 
0.710021 -0.13576 0.0 
0.766679 0.372114 0.0 
0.00616985 0.000452262 0.0 
1.00824 -0.000681936 0.0 
0.0199174 -0.00641771 0.0 
0 0 0.0 
0.954627 -0.0476023 0.0 
0.646453 0.180506 0.0 
0.672716 0.00117841 0.0 
0.933558 0.0479231 0.0 
0.0280765 0.0014624 0.0 
0.259699 -0.0477684 0.0 
0.181023 0.0236619 0.0 
0.118049 0.0167154 0.0 
1.02195 0.0432434 0.0 
0.801552 -0.139932 0.0 
0.157017 -0.016279 0.0 
3.85826e-214 -3.72034e-215 0.0 
1.01263 -0.00282212 0.0 
0.853111 -0.117804 0.0 
1.01104 0.000509778 0.0 
1.0033 -0.00088186 0.0 
0.7596 0.197598 0.0 
1.07366 -0.0967305 0.0 
0.0325196 0.000201232 0.0 
0.932148 0.208238 0.0 
1.00761 -0.00253395 0.0 
1.00854 0.000262445 0.0 
0 0 0.0 
-1.25668e-185 2.96552e-187 0.0 
1.08474 -0.164519 0.0 
0.251281 0.0136766 0.0 
0.899786 -0.0784841 0.0 
1.00805 0.000781759 0.0 
1.00991 -0.00217842 0.0 
0.776143 0.16828 0.0 
0.044973 -0.0698325 0.0 
0.00436159 -0.000336373 0.0 
1.0938 0.190174 0.0 
0.0248791 0.000905981 0.0 
0.34427 -0.0258461 0.0 
1.00727 -0.00284626 0.0 
0.168023 -0.0147589 0.0 
0.45067 0.0262704 0.0 
0.504038 0.00899872 0.0 
-7.84638e-68 1.67385e-68 0.0 
0.708702 -0.378286 0.0 
1.00848 -0.00106563 0.0 
1.00736 -0.00130477 0.0 
1.05643 0.00327856 0.0 
0.129717 0.00803366 0.0 
0.657036 -0.286237 0.0 
0 0 0.0 
0.528928 -0.0576734 0.0 
0.976612 0.225629 0.0 
0.285355 0.134845 0.0 
1.00709 -0.000945939 0.0 
1.03339 -0.0530329 0.0 
1.00573 -0.00234951 0.0 
-9.74045e-189 2.29854e-190 0.0 
0.715872 -0.26759 0.0 
1.00904 0.00185331 0.0 
0.972857 -0.0240276 0.0 
0.00531298 -0.000169875 0.0 
0.0596437 0.00500493 0.0 
1.5556e-05 -1.75574e-06 0.0 
1.0089 -0.0021559 0.0 
0.257821 -0.0232857 0.0 
0.715787 0.336662 0.0 
0.00455615 -0.000760868 0.0 
0.647435 0.255884 0.0 
0.711522 0.270643 0.0 
-1.3063e-13 1.46578e-14 0.0 
0.475713 0.29053 0.0 
1.01114 -0.00179368 0.0 
0.563839 0.0217173 0.0 
0.940062 -0.00402887 0.0 
0.00529627 -1.78089e-05 0.0 
0.788541 0.365888 0.0 
-3.29975e-277 -3.29725e-279 0.0 
0.500913 -0.113273 0.0 
0.67652 0.24116 0.0 
1.0179 -0.0168066 0.0 
0.806374 0.0186367 0.0 
0.708502 0.375118 0.0 
-4.73968e-16 5.5866e-17 0.0 
0.445742 -0.0381981 0.0 
0.557528 -0.0641707 0.0 
0.540452 0.0992953 0.0 
0.727639 0.307841 0.0 
1.00035 -0.000264926 0.0 
0.904167 0.0258028 0.0 
0.0990465 -0.145598 0.0 
0.345193 -0.0254374 0.0 
1.01161 0.000788949 0.0 
0.608183 -0.292224 0.0 
0.0124446 0.000937024 0.0 
0.00978821 0.000644501 0.0 
0.389415 0.0209918 0.0 
0.761973 0.304848 0.0 
0 0 0.0 
0.43343 0.110233 0.0 
1.00188 -0.0027521 0.0 
1.00999 0.00124075 0.0 
0.109958 0.00945516 0.0 
2.7759e-106 -2.27562e-107 0.0 
-8.41162e-285 -8.40518e-287 0.0 
1.00952 0.00151445 0.0 
0.790149 0.0180497 0.0 
0 0 0.0 
0.42456 -0.124548 0.0 
0.0813071 -0.00814093 0.0 
1.26985e-07 2.31659e-08 0.0 
0.578932 -0.433657 0.0 
0.113964 0.0679066 0.0 
1.00031 0 0.0 
0.448705 -0.10127 0.0 
0.540919 -0.0346594 0.0 
3.99514e-05 -4.54092e-06 0.0 
1.00601 0.00241014 0.0 
-1.81423e-183 -1.03079e-184 0.0 
0.722296 0.0552645 0.0 
0.496619 0.106337 0.0 
1.0348 -0.00460365 0.0 
0.0664377 -0.00145747 0.0 
1.00723 0.000403652 0.0 
-2.02312e-35 3.5703e-36 0.0 
0.262351 -0.0967981 0.0 
1.00943 -2.6241e-273 0.0 
2.00481e-13 -2.59965e-14 0.0 
0 0 0.0 
1.00222 -0.00248351 0.0 
0.473353 -0.0838083 0.0 
0.00432701 0.00017695 0.0 
1.00087 0.00232925 0.0 
0.460761 -0.0421683 0.0 
0.209711 -0.0802837 0.0 
0.940353 -0.0303185 0.0 
1.0006 -0.00295103 0.0 
0 0 0.0 
0.0184426 0.00197135 0.0 
9.37708e-74 4.74856e-75 0.0 
1.05915 0.218791 0.0 
0.99934 0.000769143 0.0 
0.748621 0.277034 0.0 
0.249021 -0.0386211 0.0 
0.277453 -0.345701 0.0 
3.55564e-46 2.15903e-46 0.0 
0.0582859 0.00817003 0.0 
0.150365 0.0178105 0.0 
1.00766 0 0.0 
1.12559 0.107269 0.0 
1.01368 -0.00165129 0.0 
-8.41741e-154 -7.50624e-155 0.0 
0.0331433 -0.0118305 0.0 
0.491479 -0.048788 0.0 
0.768923 0.364579 0.0 
0.747142 0.0631816 0.0 
0.579172 -0.061485 0.0 
1.01906 0.217585 0.0 
0.863411 0.354091 0.0 
0.493255 -0.172328 0.0 
0.814357 0.355886 0.0 
0.634817 -0.136529 0.0 
0.989047 0.00860653 0.0 
0.943451 -0.334893 0.0 
7.77306e-07 -1.11429e-07 0.0 
0.746304 -0.0902632 0.0 
0.246552 -0.00493869 0.0 
8.89181e-88 9.03909e-89 0.0 
0.0419267 -0.00320575 0.0 
0.327046 0.0456831 0.0 
1.04977 0.102869 0.0 
0 0 0.0 
0.0163313 0.000666253 0.0 
0.987877 0.0970543 0.0 
1.0173 -0.00737255 0.0 
0.415558 -0.00472326 0.0 
0.00302692 -6.73772e-05 0.0 
0.0460267 -0.00979334 0.0 
0.407309 -0.00328438 0.0 
0.809868 0.127027 0.0 
1.00455 -0.0011878 0.0 
0.252047 0.0327453 0.0 
0.840518 -0.022322 0.0 
0.455258 -0.0477527 0.0 
0.98754 -0.00372554 0.0 
0.0922207 0.0102689 0.0 
0.191695 0.15685 0.0 
0.780592 0.136305 0.0 
0.121293 -0.00716649 0.0 
1.00563 0.000763373 0.0 
0.189218 0.0401616 0.0 
0.799928 0.0730561 0.0 
0.0949527 0.00547035 0.0 
1.00993 -0.012378 0.0 
0.696816 -0.449245 0.0 
0.767757 0.087295 0.0 
0.315667 0.0747071 0.0 
0.211869 -0.197608 0.0 
1.06202 0.0637651 0.0 
5.36576e-181 -5.17399e-182 0.0 
0.0294463 0.00237532 0.0 
0.771776 -0.290189 0.0 
-2.76284e-16 3.23048e-17 0.0 
0.404235 0.0431754 0.0 
1.00742 -0.000249166 0.0 
0.00284045 -0.000293291 0.0 
0.0457346 -0.00314515 0.0 
0.171642 0.0126437 0.0 
1.55274e-05 -8.7191e-07 0.0 
-2.6022e-56 -4.1026e-58 0.0 
1.01068 0.000115708 0.0 
1.01108 -0.00296092 0.0 
3.40378e-87 1.723e-91 0.0 
0.59118 0.0803579 0.0 
0.0430689 -0.0166561 0.0 
0.985072 -0.0293804 0.0 
0.0176573 4.4559e-05 0.0 
1.00129 0.00312436 0.0 
0 0 0.0 
0.84381 -0.261268 0.0 
0.952888 0.0442337 0.0 
0.926986 0.00134094 0.0 
1.00268 -0.00160526 0.0 
0.00450976 -0.000575099 0.0 
0.0281719 -0.00345222 0.0 
0.862258 0.258436 0.0 
0 0 0.0 
0.0692474 0.0773195 0.0 
1.00897 0.0019722 0.0 
0.00673501 0.000616301 0.0 
0.892138 -0.301162 0.0 
0.0543354 0.0201366 0.0 
4.19468e-14 6.75403e-15 0.0 
0.0431021 -0.0032379 0.0 
0.966181 0.30525 0.0 
2.8252e-46 -3.6609e-47 0.0 
0.939451 0.126329 0.0 
0 0 0.0 
1.00925 -0.0016292 0.0 
1.00657 -0.00213966 0.0 
1.00575 0.000534006 0.0 
0.0148931 -0.00716639 0.0 
0.279674 -0.0323112 0.0 
0.138791 0.00760737 0.0 
0 0 0.0 
0.439113 -0.0102855 0.0 
1.09447 -0.113116 0.0 
1.00045 0.00516588 0.0 
0.136211 0.00314065 0.0 
-3.50392e-22 -9.27965e-23 0.0 
0.940833 -0.101125 0.0 
1.00501 -0.00686837 0.0 
0 0 0.0 
1.00973 -0.0016019 0.0 
1.01224 -0.294374 0.0 
1.00914 0.00307108 0.0 
0.323835 0.166689 0.0 
0.498271 -0.356109 0.0 
0 0 0.0 
0.114851 0.129301 0.0 
0.0733732 -0.000225845 0.0 
0.999824 -0.000463992 0.0 
0.999521 -0.00023647 0.0 
0.0130173 0.000891289 0.0 
0.0828757 -0.130112 0.0 
1.00897 0.00156239 0.0 
1.0034 -0.00364744 0.0 
0 0 0.0 
1.00639 0.00107124 0.0 
0.000341146 -1.18733e-05 0.0 
1.00776 0.256052 0.0 
0.00552541 0.00036357 0.0 
0.919023 0.00210434 0.0 
1.01805 -0.0445516 0.0 
1.00885 -0.00183411 0.0 
0.00577791 0.000763152 0.0 
0.608494 -0.465467 0.0 
2.93889e-62 -3.80822e-63 0.0 
0.727264 0.191027 0.0 
0.27009 -0.0200564 0.0 
0.678195 0.198894 0.0 
0.171151 0.00133071 0.0 
0.949748 0.0616565 0.0 
2.55507e-06 -1.4628e-07 0.0 
0 0 0.0 
1.0072 -0.000754047 0.0 
1.00882 -0.000834023 0.0 
1.03642 -0.272933 0.0 
0.420358 0.0405173 0.0 
-2.66723e-14 -7.97213e-16 0.0 
0.0946159 -0.0150156 0.0 
1.00786 0.000492183 0.0 
1.00461 -0.0581813 0.0 
1.00861 0.000455244 0.0 
0.00558847 -6.23669e-06 0.0 
0.685727 0.168357 0.0 
0.0212153 -0.00106499 0.0 
0.0358234 -0.00658745 0.0 
0.591265 -0.0729998 0.0 
0.688658 -0.126129 0.0 
0.43952 0.0242352 0.0 
1.09284 -0.0961312 0.0 
0.050242 0.00236257 0.0 
0.00497971 0.000428425 0.0 
1.0095 -0.00202452 0.0 
1.00635 -0.0449914 0.0 
0.500943 0.15163 0.0 
1.01082 -0.00327933 0.0 
1.06747 -0.166691 0.0 
1.00774 0.00124311 0.0 
1.00534 0 0.0 
1.01073 -0.00718817 0.0 
0.00141849 -2.09823e-06 0.0 
0 0 0.0 
0.147365 0.0410314 0.0 
1.00816 0.000764986 0.0 
0.943531 -0.359889 0.0 
1.00585 -0.000898898 0.0 
2.10455e-06 -3.46162e-07 0.0 
0.693289 -0.29002 0.0 
0 0 0.0 
1.01077 -0.00221384 0.0 
0.0485852 -0.00341518 0.0 
0 0 0.0 
1.07292 0.00905449 0.0 
0.0128053 0.000560347 0.0 
1.00249 0.00690451 0.0 
0.884785 -0.0502407 0.0 
1.00972 -0.00223621 0.0 
0.574706 0.222878 0.0 
0.650462 0.276879 0.0 
1.00709 0 0.0 
-6.83812e-174 -1.35931e-174 0.0 
0.92063 -0.304883 0.0 
1.00003 0.00051613 0.0 
0.199361 -0.0292592 0.0 
0.0221877 0.000129808 0.0 
0.996189 -0.00846176 0.0 
0.951898 0.284069 0.0 
1.0002 -0.000285902 0.0 
0.117963 -0.0214884 0.0 
0.819069 -0.244843 0.0 
0.905355 0.331992 0.0 
0.161024 0.167545 0.0 
0 0 0.0 
-8.2364e-54 -3.04223e-54 0.0 
-3.56782e-195 8.41934e-197 0.0 
0.0331883 -0.0150083 0.0 
1.01726 -0.111336 0.0 
0.197886 0.178452 0.0 
0.801862 -0.352256 0.0 
1.01489 -0.00282033 0.0 
0.838609 0.0154438 0.0 
0 0 0.0 
0.00266017 -0.000481024 0.0 
3.50026e-53 -2.07765e-54 0.0 
0.648558 -0.0102436 0.0 
1.00902 0.00895211 0.0 
0.645486 -0.00947483 0.0 
0.102241 -0.0114998 0.0 
1.00684 0.000130772 0.0 
-1.69346e-28 9.74278e-30 0.0 
1.00581 0.153185 0.0 
1.00763 -0.00426729 0.0 
2.56991e-159 -1.53601e-160 0.0 
0.745791 -0.429894 0.0 
1.00755 0.00102695 0.0 
1.00673 0.00215608 0.0 
0.461297 0.0516084 0.0 
0 0 0.0 
0.977276 0.293358 0.0 
1.0082 0.000300443 0.0 
-6.77815e-186 1.59944e-187 0.0 
1.00051 0.000587959 0.0 
0.0188236 0.000407335 0.0 
0.6824 -0.107153 0.0 
1.01013 0.00170952 0.0 
-2.24544e-26 1.65784e-27 0.0 
1.00685 -0.000557936 0.0 
3.96778e-68 -2.41092e-69 0.0 
0.181312 0.00373196 0.0 
1.01285 -0.00060078 0.0 
0 0 0.0 
1.0422 0.0730106 0.0 
0.968696 -0.341894 0.0 
0.274616 -0.00937961 0.0 
0.00685047 0.000623485 0.0 
0.000380516 2.99525e-05 0.0 
0.87223 -0.045062 0.0 
-1.98441e-154 -1.7696e-155 0.0 
1.01805 0.0318496 0.0 
0.849077 0.331773 0.0 
1.00007 0.000319326 0.0 
0.908772 0.0103739 0.0 
1.00777 0.000854164 0.0 
1.07459 -0.21095 0.0 
0.164873 -0.0994359 0.0 
0.499248 0.0171157 0.0 
0 0 0.0 
0.561449 -0.207986 0.0 
0.0270756 0.00343161 0.0 
0.686734 -0.0464331 0.0 
0.188129 -0.0276417 0.0 
0.805796 0.165082 0.0 
1.0115 -0.0021002 0.0 
0.842724 0.345628 0.0 
1.01068 0.000774908 0.0 
0.840821 0.322505 0.0 
0.846146 0.296773 0.0 
0.454663 0.159923 0.0 
8.85035e-182 8.68869e-183 0.0 
1.00001 -0.000531804 0.0 
4.17309e-06 7.16759e-07 0.0 
0.881072 -0.0713652 0.0 
7.08163e-07 -5.48274e-09 0.0 
0.892004 -0.0283038 0.0 
0.616204 -0.116873 0.0 
1.00288 0 0.0 
0.0331169 -0.0520948 0.0 
8.41525e-67 -8.77285e-68 0.0 
0.564202 0.0548047 0.0 
0.714565 -0.0978876 0.0 
0.0210484 0.000509946 0.0 
1.00777 0.000615641 0.0 
0.167521 -0.252716 0.0 
0 0 0.0 
-1.14201e-112 -1.37613e-113 0.0 
0.0280049 -0.00234678 0.0 
0.0513323 -0.00535556 0.0 
0.111389 0.0307205 0.0 
0.153237 0.0368373 0.0 
0.00609217 -6.86926e-05 0.0 
0 0 0.0 
0.199974 0.00362449 0.0 
0.00248852 -0.000229073 0.0 
0 0 0.0 
4.16084e-70 3.65439e-71 0.0 
0.0149116 0.000201757 0.0 
0.662477 0.00741896 0.0 
0.00507529 0.00018322 0.0 
0.841019 0.341701 0.0 
2.04232e-06 -1.43413e-07 0.0 
0.00510395 -0.000181866 0.0 
0.0939477 0.00464118 0.0 
0.353643 0.0905465 0.0 
0.451194 -0.00462172 0.0 
0.73551 0.302074 0.0 
2.02283e-05 6.68406e-07 0.0 
0.0233887 0.00158231 0.0 
0.620036 0.0107664 0.0 
1.00055 0.00243598 0.0 
-1.80317e-21 -2.40712e-22 0.0 
0.817725 0.364091 0.0 
1.0043 -0.00121083 0.0 
0.594375 -0.0278957 0.0 
1.00498 -0.00126279 0.0 
0.363817 0.0225034 0.0 
0.099956 0.0131679 0.0 
0.0753772 0.0156034 0.0 
0.858994 -0.4029 0.0 
1.01094 0.270344 0.0 
1.00707 0.000132622 0.0 
2.98931e-60 -1.43274e-60 0.0 
0.882782 0.341699 0.0 
0.645936 0.0208 0.0 
1.00009 0.000618233 0.0 
0.952378 -0.0458824 0.0 
0.124606 0.0176256 0.0 
-2.7495e-95 7.97219e-96 0.0 
0.678672 -0.368314 0.0 
1.00491 0.00114056 0.0 
0.175838 -0.0171781 0.0 
0.593725 -0.142993 0.0 
1.07852 -0.176835 0.0 
0.109318 -0.00996945 0.0 
0.999554 0.00106106 0.0 
1.00389 -0.00246473 0.0 