<VTKFile type="UnstructuredGrid" version="0.1" byte_order="LittleEndian">
  <UnstructuredGrid>
    <Piece NumberOfPoints="13643" NumberOfCells="27125">
      <Points>
        <DataArray type = "Float64" NumberOfComponents="3" format="ascii">
0 0 0.0 
14 0 0.0 
14 8 0.0 
0 8 0.0 
4.16782 4.09801 0.0 
3.94478 3.9854 0.0 
4.8855 4.04218 0.0 
4.49783 4.07242 0.0 
4.95369 3.99592 0.0 
4.39944 4.08241 0.0 
4.2843 4.07212 0.0 
4.32674 4.04689 0.0 
4.53714 4.08182 0.0 
4.19447 4.09432 0.0 
4.33592 4.0755 0.0 
4.20715 3.97737 0.0 
4.08897 4.02831 0.0 
4.54789 4.06645 0.0 
4.04003 3.97377 0.0 
3.96554 4.00011 0.0 
3.99381 3.96329 0.0 
4.98841 3.99752 0.0 
4.31941 4.04941 0.0 
4.04908 4.02169 0.0 
4.09201 3.95624 0.0 
4.5651 4.06787 0.0 
4.98425 4.01049 0.0 
4.01323 3.99894 0.0 
4.80677 3.98765 0.0 
4.25007 4.10489 0.0 
4.30106 3.99364 0.0 
4.65169 3.97785 0.0 
4.43419 4.07425 0.0 
4.53378 3.95353 0.0 
4.3055 4.04509 0.0 
4.00962 4.08349 0.0 
4.55899 3.98626 0.0 
4.92871 4.01365 0.0 
4.3826 3.93601 0.0 
5.32371 4.06067 0.0 
4.9133 3.98518 0.0 
4.31648 4.06896 0.0 
4.57512 3.88223 0.0 
4.18205 4.09227 0.0 
9.58599 0 0.0 
4.48761 3.97013 0.0 
4.34508 4.08154 0.0 
4.17759 3.97818 0.0 
4.95798 3.99668 0.0 
4.09533 4.03459 0.0 
4.00922 3.99881 0.0 
4.63414 4.10066 0.0 
4.4538 4.05514 0.0 
4.90555 4.00888 0.0 
4.36731 4.05544 0.0 
4.06482 4.05654 0.0 
4.48165 4.07207 0.0 
4.89463 3.72151 0.0 
3.93682 3.99751 0.0 
4.11094 4.03801 0.0 
4.75237 4.0958 0.0 
4.61136 3.97824 0.0 
5.12801 3.98494 0.0 
4.76011 3.98564 0.0 
5.05801 3.99985 0.0 
4.94183 4.02113 0.0 
5.16238 3.91612 0.0 
4.15983 3.95436 0.0 
5.26566 3.61454 0.0 
4.30358 3.91555 0.0 
4.29556 3.95682 0.0 
4.09999 3.96805 0.0 
5.25126 3.98438 0.0 
4.53213 4.0792 0.0 
4.39911 4.08554 0.0 
4.81612 4.03144 0.0 
4.21399 3.95431 0.0 
4.68959 4.01351 0.0 
5.00154 3.99207 0.0 
4.51115 4.06089 0.0 
4.47982 4.06646 0.0 
4.25241 4.07233 0.0 
4.13683 4.04218 0.0 
4.51197 3.96468 0.0 
4.01647 3.99236 0.0 
4.0319 4.00435 0.0 
4.42885 3.97008 0.0 
4.4008 4.07045 0.0 
3.9959 4.10723 0.0 
4.9257 4.24286 0.0 
4.11961 3.95973 0.0 
0 6.15459 0.0 
4.0192 3.99331 0.0 
4.21562 3.96193 0.0 
4.20624 3.96088 0.0 
4.39413 4.09439 0.0 
4.97586 4.02633 0.0 
4.41708 4.07094 0.0 
5.00785 4.00312 0.0 
10.8833 7.73481 0.0 
4.96628 4.02165 0.0 
4.30326 3.97922 0.0 
14 6.11123 0.0 
4.76841 4.03656 0.0 
4.17782 3.95315 0.0 
4.3192 4.05771 0.0 
3.96293 3.99513 0.0 
4.22684 3.95683 0.0 
4.67991 4.04892 0.0 
4.00794 4.01927 0.0 
3.99379 4.00703 0.0 
4.28762 3.95822 0.0 
5.03257 4.046 0.0 
4.10616 3.9693 0.0 
3.88293 4.06948 0.0 
4.95003 4.00309 0.0 
4.78299 4.03644 0.0 
4.09199 3.94174 0.0 
4.23788 4.086 0.0 
5.07418 3.98216 0.0 
4.00033 3.99544 0.0 
4.16045 4.07956 0.0 
4.96558 4.01767 0.0 
4.22217 4.08392 0.0 
4.20357 3.95412 0.0 
3.94066 4.00568 0.0 
4.17826 3.97571 0.0 
4.94275 4.03875 0.0 
5.0358 4.01482 0.0 
14 5.21618 0.0 
4.148 3.95496 0.0 
4.40535 4.09238 0.0 
3.9464 4.01382 0.0 
4.58632 3.95636 0.0 
4.76745 4.06313 0.0 
4.14001 4.03746 0.0 
3.94943 3.96456 0.0 
4.28741 4.07798 0.0 
4.09422 4.04418 0.0 
4.10529 4.06498 0.0 
4.32601 4.07164 0.0 
4.58986 4.05393 0.0 
4.38633 3.98306 0.0 
4.15137 3.94778 0.0 
4.54634 4.06121 0.0 
4.70749 4.04668 0.0 
4.90485 4.03159 0.0 
4.27924 3.95176 0.0 
4.02442 3.98515 0.0 
4.46732 3.96934 0.0 
4.80334 4.03685 0.0 
4.47976 3.96787 0.0 
4.88764 4.00749 0.0 
4.07379 4.0425 0.0 
4.31931 4.09317 0.0 
4.10445 4.07202 0.0 
4.32881 4.06857 0.0 
4.03119 4.0255 0.0 
4.89032 4.03362 0.0 
4.34604 4.08406 0.0 
4.37798 8 0.0 
4.12623 4.0709 0.0 
4.81077 4.01071 0.0 
4.08368 4.05662 0.0 
4.24844 4.07301 0.0 
4.96542 4.00811 0.0 
4.33046 3.95323 0.0 
4.27852 0 0.0 
4.09577 4.05589 0.0 
4.29262 4.07791 0.0 
4.576 3.95002 0.0 
4.31644 4.1036 0.0 
4.18412 4.06137 0.0 
4.96953 4.01627 0.0 
4.54129 4.07786 0.0 
4.70456 4.05132 0.0 
4.28453 3.97918 0.0 
4.70266 8 0.0 
4.41648 3.97181 0.0 
4.22145 4.07889 0.0 
3.9917 4.0015 0.0 
4.19346 4.07861 0.0 
4.52959 4.06154 0.0 
5.07793 3.99654 0.0 
4.13425 4.07811 0.0 
4.80159 4.03515 0.0 
4.00292 3.9928 0.0 
4.13984 3.96688 0.0 
4.21452 4.09342 0.0 
4.1741 4.07586 0.0 
4.39804 4.06078 0.0 
4.19763 3.93666 0.0 
3.99196 4.00548 0.0 
4.23139 3.96259 0.0 
4.26536 3.95957 0.0 
7.70018 0 0.0 
4.40453 3.99435 0.0 
4.81542 4.03371 0.0 
3.91267 2.38613 0.0 
4.74914 3.98575 0.0 
4.01965 4.03223 0.0 
4.92744 3.95369 0.0 
4.60874 4.1813 0.0 
4.954 4.027 0.0 
4.06889 3.96532 0.0 
4.29787 4.08601 0.0 
4.85972 3.95984 0.0 
4.52625 4.08243 0.0 
4.08836 4.05658 0.0 
4.87366 4.05866 0.0 
4.97125 3.99759 0.0 
4.94996 4.021 0.0 
4.01519 4.00142 0.0 
4.39711 4.07709 0.0 
4.30754 3.9604 0.0 
4.12124 3.98374 0.0 
4.56658 4.04773 0.0 
3.02164 2.14371 0.0 
4.64875 3.96973 0.0 
5.21851 4.20553 0.0 
4.17912 4.05461 0.0 
4.9052 4.0184 0.0 
4.86954 4.03121 0.0 
4.47926 4.0658 0.0 
4.31296 4.05832 0.0 
4.40352 3.95561 0.0 
4.64051 3.96511 0.0 
4.69142 4.0466 0.0 
4.6549 3.97498 0.0 
4.96387 3.99777 0.0 
4.97318 3.99793 0.0 
4.81741 3.98962 0.0 
4.1829 4.06659 0.0 
4.12635 4.07409 0.0 
0 1.4212 0.0 
4.2186 3.98359 0.0 
4.90771 3.98082 0.0 
4.33433 4.04922 0.0 
4.18679 4.08465 0.0 
4.87927 4.03699 0.0 
5.10947 4.01128 0.0 
4.96368 4.01995 0.0 
4.21862 4.08668 0.0 
4.85689 4.02682 0.0 
4.96495 3.53958 0.0 
5.20285 4.02101 0.0 
4.25777 4.07923 0.0 
4.26473 4.09251 0.0 
4.55735 4.0503 0.0 
5.06466 4.03466 0.0 
4.52959 4.07147 0.0 
6.00493 3.29675 0.0 
4.33589 3.95158 0.0 
4.0645 3.93906 0.0 
4.16503 4.11076 0.0 
4.97691 5.18781 0.0 
4.20746 4.07011 0.0 
4.43134 4.06596 0.0 
4.19206 3.91938 0.0 
4.21772 4.0805 0.0 
3.96023 4.01528 0.0 
4.08139 3.93577 0.0 
4.09641 3.95124 0.0 
4.12454 3.92729 0.0 
4.42303 4.06654 0.0 
4.08491 4.0641 0.0 
3.96293 4.03138 0.0 
4.95232 4.01088 0.0 
4.77696 4.03942 0.0 
4.61906 3.96711 0.0 
4.06298 3.99231 0.0 
4.88605 4.03256 0.0 
4.19366 3.95089 0.0 
4.43113 3.96938 0.0 
4.21125 3.95113 0.0 
4.53385 4.06889 0.0 
3.99252 4.00665 0.0 
4.15391 3.96571 0.0 
4.21022 3.93613 0.0 
4.17636 4.06982 0.0 
4.01378 4.004 0.0 
4.46072 4.06578 0.0 
3.94066 3.96869 0.0 
4.14911 3.96645 0.0 
4.34985 4.07572 0.0 
3.95819 3.97698 0.0 
4.57758 3.96117 0.0 
4.13476 4.05158 0.0 
4.85333 3.9652 0.0 
4.24986 3.96362 0.0 
4.89579 4.00657 0.0 
4.54783 4.09596 0.0 
4.15636 4.04974 0.0 
4.73636 4.04063 0.0 
3.95778 3.98461 0.0 
4.96863 4.01905 0.0 
3.9419 3.97853 0.0 
4.95965 4.00789 0.0 
4.19018 4.05306 0.0 
4.80439 3.982 0.0 
4.10081 3.94382 0.0 
4.59201 3.9801 0.0 
4.69463 4.07217 0.0 
4.85747 4.03158 0.0 
4.84714 3.98952 0.0 
4.44144 4.05314 0.0 
4.16738 4.07553 0.0 
4.44533 3.97447 0.0 
4.2487 3.95934 0.0 
4.18595 4.03614 0.0 
4.75236 4.05761 0.0 
4.55889 3.97818 0.0 
3.9771 4.03148 0.0 
4.02212 4.02544 0.0 
4.13693 4.05883 0.0 
4.75643 4.04578 0.0 
4.15561 4.10177 0.0 
4.18309 4.12442 0.0 
3.96476 4.03852 0.0 
4.35781 3.96905 0.0 
4.18744 4.07562 0.0 
4.27681 4.06755 0.0 
4.61011 3.96325 0.0 
3.96822 4.02719 0.0 
3.97233 4.04194 0.0 
3.98573 3.91699 0.0 
4.56084 4.05253 0.0 
5.53338 3.6803 0.0 
4.46242 4.1072 0.0 
5.06826 4.04558 0.0 
5.00025 3.83705 0.0 
4.0871 3.9316 0.0 
4.20876 3.92492 0.0 
4.2556 4.06968 0.0 
3.92251 4.00785 0.0 
4.91207 4.03056 0.0 
4.22899 4.0812 0.0 
4.04483 3.94951 0.0 
4.87322 4.04301 0.0 
4.30498 3.95249 0.0 
4.3849 4.08353 0.0 
4.35276 4.07467 0.0 
4.17354 4.03495 0.0 
4.90637 3.9917 0.0 
4.17953 3.96777 0.0 
3.94564 3.99975 0.0 
4.39174 4.08409 0.0 
3.99177 4.03012 0.0 
4.28319 4.06659 0.0 
4.46666 4.23647 0.0 
4.96333 4.00867 0.0 
5.0503 4.04358 0.0 
4.98371 4.01321 0.0 
4.35255 4.06175 0.0 
4.82163 4.01433 0.0 
5.07249 3.97472 0.0 
4.36975 3.96168 0.0 
4.56943 3.97767 0.0 
4.20488 4.08602 0.0 
4.54401 3.97644 0.0 
4.95809 4.00258 0.0 
4.04592 3.97224 0.0 
11.7013 4.10211 0.0 
4.45462 4.06706 0.0 
4.79715 3.97416 0.0 
5.0971 4.42033 0.0 
4.93879 3.86552 0.0 
4.54056 4.04006 0.0 
4.1384 3.95607 0.0 
4.08008 3.9656 0.0 
5.03537 3.56335 0.0 
9.42586 7.54773 0.0 
4.05249 3.93532 0.0 
4.55327 4.04794 0.0 
4.36894 4.08372 0.0 
4.84564 4.02916 0.0 
4.04801 4.00631 0.0 
4.05408 3.9411 0.0 
5.08173 4.61311 0.0 
10.3447 0 0.0 
4.02341 4.03456 0.0 
5.62361 4.02958 0.0 
4.52724 7.41561 0.0 
5.05919 4.01855 0.0 
4.22973 3.95422 0.0 
4.42626 4.20145 0.0 
4.76252 4.05839 0.0 
4.32439 4.08671 0.0 
4.31072 4.04875 0.0 
4.26548 4.05787 0.0 
4.80849 4.01468 0.0 
4.14581 4.04395 0.0 
4.00417 4.00378 0.0 
4.58415 3.9594 0.0 
4.80282 3.9555 0.0 
4.93151 4.00583 0.0 
4.20971 4.06894 0.0 
5.0873 4.02567 0.0 
4.62953 3.99891 0.0 
4.14875 4.04159 0.0 
1.24078 0.550265 0.0 
4.00323 3.99439 0.0 
4.38201 4.11295 0.0 
4.35966 4.07021 0.0 
4.20156 3.96536 0.0 
2.38032 0.204862 0.0 
4.4105 4.07208 0.0 
9.1005 7.43296 0.0 
4.90555 3.50005 0.0 
4.36707 4.04236 0.0 
5.30331 4.21273 0.0 
4.88329 4.00667 0.0 
4.08502 3.97256 0.0 
4.23606 3.93282 0.0 
4.24778 3.96722 0.0 
4.15329 4.03972 0.0 
4.86217 4.02467 0.0 
4.00056 3.99697 0.0 
4.01517 4.03055 0.0 
4.26022 3.94165 0.0 
3.8793 4.36432 0.0 
4.36563 4.07339 0.0 
4.08061 4.08505 0.0 
4.80332 3.96526 0.0 
4.02246 4.02836 0.0 
4.71753 3.97529 0.0 
5.01832 3.97609 0.0 
3.99908 3.98836 0.0 
4.56421 3.97392 0.0 
4.12151 3.94609 0.0 
4.32619 4.09058 0.0 
3.97661 4.05846 0.0 
4.57222 4.05924 0.0 
4.99734 4.03803 0.0 
4.01757 4.01026 0.0 
3.99883 4.00817 0.0 
4.00955 3.98517 0.0 
4.60808 3.9604 0.0 
4.97222 4.02124 0.0 
4.13366 3.9572 0.0 
4.74479 3.97886 0.0 
4.46375 3.97138 0.0 
4.70161 3.97766 0.0 
4.35005 4.09252 0.0 
4.2163 3.94824 0.0 
4.36417 3.95688 0.0 
4.95824 4.01081 0.0 
4.22957 3.95099 0.0 
4.61468 3.97194 0.0 
4.12589 3.95744 0.0 
5.04427 4.55731 0.0 
4.2593 4.09637 0.0 
4.07543 3.96017 0.0 
4.2377 3.99246 0.0 
5.1158 3.74079 0.0 
4.23154 4.07931 0.0 
4.00381 4.03411 0.0 
4.3032 3.96637 0.0 
4.97641 3.72632 0.0 
4.48454 4.04542 0.0 
4.88044 0 0.0 
4.99095 4.01035 0.0 
4.4197 4.07231 0.0 
4.12408 3.94161 0.0 
4.7494 3.98767 0.0 
5.12337 4.04484 0.0 
5.00369 4.02226 0.0 
4.26004 3.94534 0.0 
4.05123 3.97655 0.0 
5.04726 4.00417 0.0 
4.61711 3.96159 0.0 
4.09782 3.95912 0.0 
4.97105 4.0068 0.0 
4.29506 3.96585 0.0 
[...]
<PointData>
  <DataArray type = "Float64" Name="Vitesse" NumberOfComponents="3" format="ascii">
1 0 0.0 
1.00007 0 0.0 
0.99997 0 0.0 
1 0 0.0 
1.04362 0.174452 0.0 
0.765558 -0.0888651 0.0 
0.204501 -0.0295805 0.0 
0.128461 -0.00575734 0.0 
0.0153373 0.000921272 0.0 
0.279914 -0.000868217 0.0 
0.122174 0.00278274 0.0 
-6.85119e-176 -4.25402e-177 0.0 
0.2853 -0.0135345 0.0 
0.943456 0.134771 0.0 
0.157881 0.00292435 0.0 
-1.50507e-57 -7.85602e-60 0.0 
1.66053e-165 4.47593e-167 0.0 
0.0805371 -0.00584601 0.0 
0.306864 -0.0748399 0.0 
0.653816 -0.0701095 0.0 
0.832373 -0.33508 0.0 
0.0176806 0.000614821 0.0 
2.43228e-168 2.74193e-169 0.0 
1.39118e-163 5.34828e-164 0.0 
0.627315 -0.0825076 0.0 
0.111705 -0.00791513 0.0 
0.0535963 -0.0100027 0.0 
3.80197e-162 -2.18619e-162 0.0 
0.0292378 0.00202287 0.0 
0.964197 0.101689 0.0 
3.71221e-124 -1.22543e-125 0.0 
0.0546941 0.00374488 0.0 
0.129775 -0.00294119 0.0 
0.291304 0.0103688 0.0 
2.29856e-167 2.59152e-168 0.0 
0.882594 0.237451 0.0 
-7.89071e-59 -1.0285e-59 0.0 
0.00100565 -0.000212666 0.0 
0.551677 -0.000162217 0.0 
0.648135 -0.0619917 0.0 
0.127644 0.00647348 0.0 
1.15773e-05 1.03278e-06 0.0 
0.983842 -0.00215581 0.0 
0.94667 0.143651 0.0 
1.0007 0 0.0 
0.0621649 0.00225222 0.0 
0.292182 0.00424328 0.0 
3.40218e-156 2.12565e-157 0.0 
0.0103026 0.000914886 0.0 
6.31341e-163 1.70177e-164 0.0 
4.41782e-159 -4.78127e-159 0.0 
0.577574 -0.0363422 0.0 
4.18645e-116 -7.97924e-118 0.0 
-3.03046e-48 5.35919e-49 0.0 
1.19376e-153 -8.70345e-155 0.0 
0.804432 0.254428 0.0 
0.113971 -0.00649958 0.0 
1.07635 -0.0276704 0.0 
0.7714 -0.0465731 0.0 
6.22988e-167 6.47548e-168 0.0 
0.57804 -0.0601008 0.0 
0.0267915 0.00191631 0.0 
0.353594 0.0150196 0.0 
0.0262438 0.00253964 0.0 
0.183908 -0.000673785 0.0 
0.0828622 -0.0139854 0.0 
0.692203 0.0488583 0.0 
0.402711 -0.0202612 0.0 
1.13906 0.0592221 0.0 
0.934522 -0.035995 0.0 
0.214394 0.0014276 0.0 
0.103904 -0.00690725 0.0 
0.491746 0.00341554 0.0 
0.244906 -0.011759 0.0 
0.341814 0.000263693 0.0 
0.0080221 -0.000501486 0.0 
0.313391 -0.00608915 0.0 
2.51368e-130 3.02155e-131 0.0 
0.113945 0.0235539 0.0 
1.06465e-22 -8.67248e-25 0.0 
0.0300106 -0.00156317 0.0 
0.187724 0.0150551 0.0 
-1.43932e-99 -1.25578e-100 0.0 
0.140012 0.00505219 0.0 
2.64504e-161 -1.52094e-161 0.0 
6.21906e-166 -3.57472e-166 0.0 
0.0364025 0.00271831 0.0 
0.0508324 -0.000348796 0.0 
0.901668 0.186045 0.0 
0.950439 -0.00975089 0.0 
0.351503 -0.0297705 0.0 
1 0 0.0 
2.19572e-161 -1.26257e-161 0.0 
0.129077 0.000755534 0.0 
0.159866 -0.00196133 0.0 
0.520935 0.00720684 0.0 
0.180295 -0.03092 0.0 
0.0656672 -0.000931629 0.0 
0.0529563 -0.0122476 0.0 
1.00009 -3.12974e-05 0.0 
0.122993 -0.0204018 0.0 
-1.05242e-58 -1.37225e-60 0.0 
0.999963 -6.68818e-06 0.0 
6.07551e-05 -1.79447e-06 0.0 
0.398412 -0.0175231 0.0 
1.22591e-159 -1.52224e-161 0.0 
0.679801 -0.093325 0.0 
0.2418 -0.00327056 0.0 
0.0129177 -0.00041367 0.0 
0.321637 0.244207 0.0 
0.253403 0.0546277 0.0 
0.189558 0.000989643 0.0 
0.412471 -0.071309 0.0 
0.035708 -0.00271702 0.0 
0.872681 0.044463 0.0 
-2.29094e-35 -1.86479e-36 0.0 
0.0125153 -0.00132396 0.0 
1.0111 -0.163554 0.0 
0.622148 0.0599808 0.0 
0.307588 0.0250716 0.0 
0.122284 -0.201185 0.0 
0.774236 0.126055 0.0 
0.0866889 -0.0143065 0.0 
0.622124 0.0660823 0.0 
0.331528 -0.00939495 0.0 
0.756171 -0.0263634 0.0 
-5.1805e-69 1.32942e-70 0.0 
0.2494 -0.0387008 0.0 
0.169635 -0.0316614 0.0 
0.999964 -1.34684e-06 0.0 
0.415928 -0.0246523 0.0 
0.472478 0.00330885 0.0 
0.738286 -0.000328719 0.0 
0.276983 0.0125805 0.0 
0.264401 -0.0322465 0.0 
-8.72798e-101 -7.61501e-102 0.0 
0.806099 -0.138362 0.0 
0.277178 0.0114736 0.0 
1.36561e-144 2.96472e-145 0.0 
0.712361 0.168088 0.0 
0.0700855 0.00104164 0.0 
4.40738e-23 -5.06076e-24 0.0 
-9.0651e-43 -4.63604e-44 0.0 
0.622847 -0.0454325 0.0 
0.013905 -0.00117798 0.0 
0.0205847 -0.00227748 0.0 
0.127914 -0.0191984 0.0 
0.318737 -0.00148126 0.0 
-6.88032e-47 2.53847e-47 0.0 
0.0630558 0.00320686 0.0 
0.0405742 -0.00571415 0.0 
0.0867386 0.00387707 0.0 
8.49358e-121 -1.19113e-121 0.0 
0.0779781 0.0190123 0.0 
0.596486 0.0305656 0.0 
0.894322 0.214915 0.0 
-9.5041e-16 -3.81439e-17 0.0 
2.16499e-155 1.166e-155 0.0 
0.127363 -0.0188587 0.0 
0.349005 0.00686219 0.0 
1.00608 0 0.0 
0.73728 0.148511 0.0 
5.44284e-161 3.50249e-162 0.0 
0.628435 0.167242 0.0 
0.217913 0.0178753 0.0 
0.00808893 -0.00164099 0.0 
0.272833 0.00237148 0.0 
1.00539 0 0.0 
0.460958 0.112815 0.0 
0.264879 0.0115567 0.0 
0.35107 0.0143242 0.0 
0.812914 0.0511966 0.0 
0.0415942 0.00342143 0.0 
0.0802778 -0.0135856 0.0 
0.230358 -0.0120966 0.0 
0.0619932 -0.00738228 0.0 
-4.99836e-61 -6.51736e-63 0.0 
1.0061 0 0.0 
0.00970712 0.000261912 0.0 
0.481384 0.0475791 0.0 
0.292786 -0.127542 0.0 
0.588408 0.0769352 0.0 
0.00137445 -7.64649e-05 0.0 
0.228078 0.00327413 0.0 
0.870161 0.171481 0.0 
0.0232335 -0.00377411 0.0 
0.0892011 -0.11137 0.0 
0.0538961 -0.00150344 0.0 
0.86914 0.107469 0.0 
0.598492 0.086026 0.0 
-3.95694e-59 5.20537e-61 0.0 
0.768309 -0.0452461 0.0 
0.289366 -0.00739717 0.0 
0.111382 0.000241786 0.0 
0.166578 0.00176461 0.0 
1.00219 0 0.0 
3.45728e-118 -1.14128e-119 0.0 
0.0270064 -0.0033167 0.0 
1.00883 -0.00768029 0.0 
0.0181177 0.00123418 0.0 
0.598476 0.309909 0.0 
0.475036 0.0272598 0.0 
1.08612 0.00246951 0.0 
0.153766 -0.0249883 0.0 
0.422444 -0.0708134 0.0 
0.467124 0.0257484 0.0 
0.383832 0.0204006 0.0 
0.289794 -0.0125149 0.0 
0.57456 0.145715 0.0 
0.349041 -0.0482471 0.0 
0.00725616 8.18294e-06 0.0 
0.0928858 -0.0154432 0.0 
1.54311e-162 -8.87332e-163 0.0 
0.17644 -0.00129488 0.0 
0.148165 0.00242268 0.0 
6.09932e-156 -3.31813e-157 0.0 
-3.28314e-52 -3.95166e-54 0.0 
1.00269 -0.00553053 0.0 
0.149547 0.00804884 0.0 
0.800662 -0.0874601 0.0 
2.5749e-148 2.20729e-149 0.0 
0.010945 -0.00153011 0.0 
0.0758551 -0.0114148 0.0 
0.019923 -0.00084949 0.0 
1.57448e-161 -1.7928e-163 0.0 
0.23336 0.00485864 0.0 
0.200301 0.010222 0.0 
0.000701735 -3.01149e-05 0.0 
0.0902244 0.00514625 0.0 
1.53843e-06 7.57976e-08 0.0 
0.000200949 -5.65818e-07 0.0 
0.0110499 0.00123102 0.0 
0.232965 0.0266105 0.0 
0.820951 0.168453 0.0 
1 0 0.0 
-4.66765e-102 -1.65982e-103 0.0 
0.177916 0.00927656 0.0 
6.2804e-161 -4.5789e-162 0.0 
0.779137 0.110341 0.0 
0.144661 -0.0211091 0.0 
0.283686 -0.0237658 0.0 
0.103876 -0.0170484 0.0 
0.706435 0.0798351 0.0 
0.0194751 -0.00278592 0.0 
1.12693 0.00397583 0.0 
0.443553 -0.0369937 0.0 
0.378073 0.0289777 0.0 
0.703886 0.0600829 0.0 
-2.21108e-72 2.00027e-73 0.0 
0.358887 -0.0588401 0.0 
0.134271 -0.00712784 0.0 
1.00054 0.00939358 0.0 
0.300825 0.00229564 0.0 
1.08648 -0.233631 0.0 
1.10135 0.185339 0.0 
1.0251 -0.014601 0.0 
0.251617 0.0256302 0.0 
0.000101161 1.8757e-07 0.0 
1.04483 -0.0843721 0.0 
0.543342 0.057564 0.0 
0.683891 0.0151169 0.0 
1.09048 -0.200156 0.0 
0.770462 -0.104899 0.0 
1.08254 -0.139633 0.0 
0.000106477 -9.86943e-07 0.0 
0.839219 0.228203 0.0 
0.710622 0.0870906 0.0 
0.0141389 -0.00157225 0.0 
0.032002 -0.00414323 0.0 
0.163465 0.00823825 0.0 
-2.99724e-175 3.84667e-176 0.0 
0.111314 -0.016377 0.0 
0.429477 -0.0169449 0.0 
0.0463155 0.00275845 0.0 
0.395669 -0.0110983 0.0 
0.102134 -0.00549365 0.0 
0.284431 0.0302571 0.0 
0.0747403 -0.00369271 0.0 
0.751966 -0.0400213 0.0 
0.385929 0.0510142 0.0 
6.73781e-165 -3.866e-165 0.0 
0.0011413 -1.31956e-05 0.0 
0.808288 -0.112818 0.0 
0.0582485 -0.00196588 0.0 
0.155124 -0.00125889 0.0 
0.754051 -0.144371 0.0 
0.21337 0.00951108 0.0 
-8.52911e-19 -1.03712e-19 0.0 
0.324489 0.0171606 0.0 
0.0871554 -0.00100642 0.0 
-6.99512e-108 5.99111e-109 0.0 
0.495381 -0.0188704 0.0 
-1.58935e-54 -1.40171e-55 0.0 
0.000451166 -5.12258e-05 0.0 
0.73029 -0.122224 0.0 
0.103289 -0.0173355 0.0 
0.785336 -0.0984243 0.0 
0.000386678 -6.63391e-05 0.0 
4.41245e-162 7.78166e-163 0.0 
0.0964422 0.005275 0.0 
0.937995 -0.135733 0.0 
8.9556e-05 9.27625e-06 0.0 
0.281056 -0.0286593 0.0 
0.0633722 -0.00926009 0.0 
0.0296913 0.000633083 0.0 
1.84563e-118 -3.70048e-120 0.0 
0.623772 0.0933284 0.0 
6.74048e-05 4.32741e-06 0.0 
0.1752 -0.000552067 0.0 
2.73258e-169 5.60028e-170 0.0 
0.186166 -0.0226365 0.0 
0.0040122 0.000593591 0.0 
0.664325 0.145759 0.0 
0.192856 0.0978265 0.0 
0.201368 0.0333705 0.0 
0.0680153 -0.00879675 0.0 
1.07869 0.192313 0.0 
1.11583 0.168375 0.0 
0.727337 0.112829 0.0 
0.0229942 0.000191586 0.0 
0.523933 0.0695844 0.0 
7.26205e-05 4.98081e-06 0.0 
0.205284 0.0100885 0.0 
0.677361 0.0899446 0.0 
0.724225 0.147522 0.0 
0.936167 -0.199079 0.0 
-7.30011e-37 2.5465e-39 0.0 
1.05639 0.0821689 0.0 
0.692709 0.000626653 0.0 
0.438701 -0.0692166 0.0 
0.875308 0.0244315 0.0 
1.10031 -0.192705 0.0 
0.953445 -0.0632547 0.0 
0.0990006 0.00654448 0.0 
0.799751 -0.0170516 0.0 
0.128239 -0.0193842 0.0 
0.520356 0.0498916 0.0 
1.05085 -0.282285 0.0 
0.196065 -0.0281694 0.0 
0.293299 0.000758605 0.0 
0.307801 0.000347339 0.0 
0.130649 -0.000200811 0.0 
2.10391e-171 3.71148e-172 0.0 
0.041087 0.00272214 0.0 
0.00118929 2.62254e-05 0.0 
0.744284 -0.0478544 0.0 
0.31589 0.000379887 0.0 
0.620236 0.250372 0.0 
-3.94143e-17 -2.37234e-18 0.0 
1.12142 0.0468175 0.0 
0.00991399 -0.00103732 0.0 
0.410004 -0.0690361 0.0 
0.0754423 -0.0140504 0.0 
-1.68317e-75 6.88235e-77 0.0 
-5.95718e-123 9.68384e-124 0.0 
0.369053 0.0333399 0.0 
0.135825 0.00351707 0.0 
0.0101378 0.000663232 0.0 
0.74192 0.0941389 0.0 
0.0124597 -0.000188938 0.0 
2.29141e-26 -2.43814e-27 0.0 
0.315303 -0.0646812 0.0 
0.999889 6.31969e-05 0.0 
0.0205319 4.49593e-05 0.0 
0.186865 0.00995544 0.0 
1.09024 -0.0109967 0.0 
0.835029 0.0239598 0.0 
-1.10356e-89 8.70435e-91 0.0 
0.409379 -0.026733 0.0 
0.316166 -0.0427124 0.0 
1.14164 0.0128289 0.0 
1.0004 -0.000179332 0.0 
1.07993 -0.252667 0.0 
-1.74702e-49 -2.10337e-51 0.0 
0.322588 0.00355735 0.0 
0.0263766 -0.00328641 0.0 
1.69769e-174 -6.38893e-175 0.0 
1.07978 -0.256659 0.0 
1.1037 -0.00834215 0.0 
1.00043 0 0.0 
0.617985 0.305646 0.0 
0.790065 -0.00840161 0.0 
1.00646 0.000180846 0.0 
0.234171 -0.0357767 0.0 
0.300115 -0.00460198 0.0 
1.13559 0.0542201 0.0 
0.207343 -0.0253569 0.0 
0.438961 0.0176462 0.0 
4.07708e-166 4.5967e-167 0.0 
-2.03378e-54 -1.11344e-55 0.0 
1.60219e-143 -1.25115e-144 0.0 
-1.97612e-94 -1.72413e-95 0.0 
2.88972e-29 -6.76753e-29 0.0 
0.238451 0.0109431 0.0 
0.396648 0.0212701 0.0 
-3.59097e-47 7.40865e-48 0.0 
0.202233 0.0182762 0.0 
0.32433 -0.0452272 0.0 
-1.63215e-97 -1.81569e-98 0.0 
-9.2161e-95 -8.04089e-96 0.0 
1.00059 -0.00069197 0.0 
-1.57436e-78 2.07643e-78 0.0 
0.861174 0.0337783 0.0 
0.0362525 0.00231309 0.0 
0.0531665 0.000122404 0.0 
1.00243 -0.000363418 0.0 
0.0839379 -0.00266782 0.0 
1.00052 -0.000282859 0.0 
1.10683 0.00196062 0.0 
3.07823e-131 -5.86702e-133 0.0 
0.810603 -0.102213 0.0 
-2.05341e-101 1.75869e-102 0.0 
7.34587e-08 -5.77295e-09 0.0 
0.768047 -0.034239 0.0 
0.0198939 2.90309e-05 0.0 
-4.52372e-97 -3.94687e-98 0.0 
0.00950692 -0.00131418 0.0 
0.0307188 -0.0929903 0.0 
0.608079 0.336256 0.0 
0.547897 -0.0131788 0.0 
0.980737 0.057877 0.0 
0.102277 0.00137779 0.0 
1.0242 0.270357 0.0 
0.293372 0.0156869 0.0 
0.363504 0.185749 0.0 
0.124026 0.00626532 0.0 
0.313514 0.0387754 0.0 
0.49429 -0.465369 0.0 
0.0519399 0.00150093 0.0 
0.788698 -0.0864828 0.0 
0.526192 0.0229451 0.0 
0.782585 0.176796 0.0 
0.0158586 -0.000578625 0.0 
0.314784 -0.0561444 0.0 
2.91066e-166 1.42685e-166 0.0 
0.133237 0.13422 0.0 
0.338835 -0.210372 0.0 
0.238765 0.011601 0.0 
0.128225 -0.0218087 0.0 
0.386977 -0.0258505 0.0 
0.0979982 0.00493606 0.0 
0.0361256 0.00173645 0.0 
0.0867783 0.00487716 0.0 
0.53287 0.0164695 0.0 
0.459156 -0.0140927 0.0 
0.209778 0.00355438 0.0 
0.0204083 -0.00325954 0.0 
0.375479 -0.00773043 0.0 
0.102822 0.00572411 0.0 
0.40833 -0.0313148 0.0 
1.1173 0.00236274 0.0 
0.800429 0.0737719 0.0 
0.597567 -0.0982095 0.0 
2.66972e-121 6.43191e-123 0.0 
1.02634 0.0321453 0.0 
0.456123 0.0414819 0.0 
0.677091 0.346422 0.0 
0.04508 0.0020618 0.0 
1.06443 -0.00938135 0.0 
7.73879e-124 -1.66408e-125 0.0 
1.00566 0 0.0 
0.0636366 -0.013973 0.0 
0.0913121 -0.00136845 0.0 
0.889228 -0.101314 0.0 
0.00043209 4.52859e-05 0.0 
0.479952 -0.064083 0.0 
0.181635 -0.0417627 0.0 
0.469279 -0.00894539 0.0 
2.06487e-05 -3.30229e-06 0.0 
0.158434 -0.00858529 0.0 
0.229299 0.011294 0.0 
0.477116 -0.052447 0.0 
0.0058934 -0.00116337 0.0 
0.0518322 0.000582782 0.0 
0.0101756 -0.00110373 0.0 
1.92857e-170 2.17435e-171 0.0 
0.999975 0 0.0 
0.105324 -0.0105952 0.0 
0.147933 -0.027279 0.0 
0.0398449 0.00513035 0.0 
4.30386e-169 3.47282e-170 0.0 
0.0339706 -0.00447148 0.0 
1.11585 0.0374197 0.0 
0.438128 0.0363794 0.0 
0.03811 0.0010305 0.0 
1.10824 -0.0458922 0.0 
1.01002 -0.138164 0.0 
0.20463 -0.309966 0.0 
0.886293 0.156113 0.0 
0.887839 -0.16734 0.0 
0.233641 -0.0222033 0.0 
0.72956 -0.0854003 0.0 
0.140001 0.00234899 0.0 
0.0409521 -0.0098168 0.0 
-2.51075e-39 -1.68727e-40 0.0 
0.0190844 -0.000224116 0.0 
0.0171288 0.000540794 0.0 
0.10729 -0.00359202 0.0 
0.48894 0.025525 0.0 
0.115102 -0.0162024 0.0 
4.01605e-142 2.20986e-143 0.0 
1.02168e-126 3.78975e-128 0.0 
0.545704 -0.0744795 0.0 
0.478459 0.116895 0.0 
-3.22388e-58 9.22977e-59 0.0 
1.00225 -0.219119 0.0 
0.900104 0.117638 0.0 
0.167907 0.0142902 0.0 
0.826278 0.0822249 0.0 
0.00949932 0.000416215 0.0 
0.000895301 -5.38617e-05 0.0 
-6.40805e-65 -2.94865e-66 0.0 
7.87814e-115 -6.87124e-115 0.0 
0.141498 0.00744909 0.0 
1.68411e-168 1.80453e-169 0.0 
0.0115715 0.000219314 0.0 
0.00720165 -0.000785583 0.0 
0.120564 -0.0143055 0.0 
0.0880392 -0.00217003 0.0 
1.04038 -0.0656969 0.0 
5.9306e-114 -1.34441e-115 0.0 
-2.79306e-57 -8.63603e-59 0.0 
0.66157 0.0944065 0.0 
0.309121 0.00700436 0.0 
9.57178e-11 3.11089e-12 0.0 
0.807371 0.245251 0.0 
0.998634 0.00544555 0.0 
0.0487731 -0.0062841 0.0 
0.132634 -0.00718758 0.0 
-6.37128e-48 -4.0077e-49 0.0 
3.48704e-115 1.24903e-116 0.0 
0.309742 0.257252 0.0 
0.753066 -0.0957408 0.0 
0.123869 -0.00236741 0.0 
0.820267 -0.124032 0.0 
0.395365 0.0345778 0.0 
0.999829 0.000187276 0.0 
0.320662 0.0306497 0.0 
0.792662 0.335867 0.0 
0.475408 0.0460663 0.0 
0.590773 -0.00546097 0.0 
1.0001 -6.11545e-05 0.0 
0.872281 0.343479 0.0 
0.602227 0.0745447 0.0 
0.486063 0.0437917 0.0 
0.0182496 0.000551963 0.0 
0.82873 -0.00516484 0.0 
0.406444 0.0667286 0.0 
0.918602 -0.250065 0.0 
0.0936441 -0.00931956 0.0 
4.95236e-169 1.9039e-169 0.0 
0.608022 0.307471 0.0 
0.201557 0.0135152 0.0 
0.516236 0.0404323 0.0 
0.5382 0.0843825 0.0 
0.291302 -0.0179294 0.0 
0.745747 -0.447096 0.0 
0.00653875 -0.00123879 0.0 
-1.88026e-36 1.75659e-37 0.0 
0.0296925 0.00165641 0.0 
0.806559 0.242738 0.0 
0.461223 -0.0689931 0.0 
0.999588 0.00283204 0.0 
0.0621645 -0.00528536 0.0 
-3.7287e-99 -4.36378e-100 0.0 
3.85739e-162 1.90373e-162 0.0 
0.496739 -0.0621963 0.0 
0.181709 0.00948099 0.0 
0.669921 0.063233 0.0 
3.04393e-162 4.20147e-163 0.0 
0.211219 0.00842351 0.0 
4.24646e-164 -2.13645e-165 0.0 
1.0011 -0.000723238 0.0 
1.00092 0.0595732 0.0 
5.8276e-162 -4.21661e-162 0.0 
0.0343081 0.032275 0.0 
3.94179e-123 -7.51292e-125 0.0 
-5.74502e-78 9.94648e-79 0.0 
0.207425 -0.0396478 0.0 
0.0126524 0.000147416 0.0 
0.0754503 0.0179767 0.0 
0.255644 0.0260796 0.0 
3.02997e-05 2.36129e-06 0.0 
0.538308 0.0483805 0.0 
-1.87235e-175 2.86704e-176 0.0 
3.39587e-154 -6.65417e-155 0.0 
1.00001 0 0.0 
2.56889e-122 -4.89623e-124 0.0 
1.00072 0 0.0 
0.215966 0.00765997 0.0 
-1.99288e-58 -5.92961e-60 0.0 
0.385098 0.204557 0.0 
1.03044 -0.0233667 0.0 
0.25804 0.035814 0.0 
0.0790521 0.00307073 0.0 
0.798409 0.0368506 0.0 
1.11952 -0.0379591 0.0 
1.10852 -0.0318442 0.0 
0.820106 -0.143923 0.0 
3.17646e-172 3.58009e-173 0.0 
0.137188 0.00329716 0.0 
0.378111 -0.0516882 0.0 
0.558734 0.0337947 0.0 
-1.88894e-37 -2.13113e-38 0.0 
-8.26233e-47 -7.72039e-49 0.0 
0.214609 0.00496411 0.0 
-1.11125e-33 1.76372e-33 0.0 
0.0987746 -0.00745348 0.0 
1.4761e-160 -4.08543e-161 0.0 
0.330485 0.0164514 0.0 
0.689321 -0.0674158 0.0 
0.76147 0.189637 0.0 
0.0132356 5.50447e-05 0.0 
0.794659 0.0610207 0.0 
0.0166077 0.00147824 0.0 
0.248713 -0.00311684 0.0 
3.84061e-165 6.77312e-166 0.0 
0.709563 0.0714787 0.0 
0.0101429 0.000138068 0.0 
-2.33106e-102 -2.72809e-103 0.0 
0.0360662 0.00270207 0.0 
0.080927 -0.00951798 0.0 
0.0225389 -0.0032368 0.0 
0.844757 0.0695303 0.0 
0.604076 0.060813 0.0 
4.83063e-163 -1.72964e-163 0.0 
0.128344 0.0051706 0.0 
-1.46339e-92 1.86724e-94 0.0 
0.734077 0.0528529 0.0 
0.0306043 0.00183647 0.0 
1.11439 -0.17169 0.0 
0.200144 0.0107072 0.0 
0.250022 -0.0340633 0.0 
0.352431 0.00335468 0.0 
0.999976 -7.51552e-06 0.0 
0.500667 -0.0551239 0.0 
0.1885 -0.0155755 0.0 
0.178798 -0.0262802 0.0 
1.60756e-162 7.92687e-163 0.0 
0.0640896 0.0138547 0.0 
1.00004 4.0613e-05 0.0 
-4.05646e-101 -4.74735e-102 0.0 
0.67747 0.0537194 0.0 
0.0110494 0.000531436 0.0 
0.166757 -0.00810777 0.0 
0.0157057 -0.00278105 0.0 
0.564761 0.0215545 0.0 
0.0263882 -0.00146495 0.0 
0.415942 0.0159882 0.0 
0.311528 0.00443156 0.0 
0.306076 0.00677682 0.0 
0.788061 -0.0763892 0.0 
0.719777 -8.65767e-05 0.0 
0.0198179 -0.00287747 0.0 
0.00366634 -0.000724412 0.0 
0.989675 -0.191945 0.0 
0.509618 -0.00313341 0.0 
7.77969e-165 2.99085e-165 0.0 
0.736044 0.329362 0.0 
0.725217 -0.392872 0.0 
0.405406 0.0352757 0.0 
0.00177001 0.000123335 0.0 
0.225268 -0.0308611 0.0 
0.33309 -0.0123424 0.0 
0.0118677 0.00125388 0.0 
1.05971e-168 -3.79437e-169 0.0 
1.72318e-123 1.49858e-124 0.0 
0.171771 -0.0242196 0.0 
0.0145037 -0.00267768 0.0 
0.763163 0.321188 0.0 
0.242774 -0.010448 0.0 
1.00007 0.000236763 0.0 
0.670488 -0.300225 0.0 
0.363186 0.0350813 0.0 
0.773547 0.0297186 0.0 
3.57275e-165 3.28791e-166 0.0 
3.89849e-116 -1.28692e-117 0.0 
0.0244888 -0.00323411 0.0 
1.08978 -0.0508587 0.0 
0.477326 0.0383491 0.0 
0.0172671 0.000782771 0.0 
0.994317 0.00476256 0.0 
0.99995 -2.91664e-05 0.0 
0.0576002 0.00431006 0.0 
1.05057e-07 1.18476e-07 0.0 
0.729993 -0.279768 0.0 
0.999989 5.44113e-05 0.0 
0.173443 0.00872224 0.0 
0.608263 -0.363783 0.0 
0.201525 -0.0271369 0.0 
1.00345e-110 2.22068e-112 0.0 
0.000502622 4.30157e-05 0.0 
0.637213 -0.0755278 0.0 
1.00561 0.00011327 0.0 
0.317916 0.01577 0.0 
0.0701389 -0.0227656 0.0 
0.119444 0.0129582 0.0 
0.599508 0.0312083 0.0 
0.0562179 -0.00308513 0.0 
0.717387 0.330314 0.0 
1.7542e-166 2.4212e-167 0.0 
3.17357e-166 -5.67529e-167 0.0 
4.7221e-124 -9.00017e-126 0.0 
0.648959 0.24758 0.0 
0.0954045 0.00561505 0.0 
0.713058 0.262977 0.0 
1.0103 -0.00181681 0.0 
4.348e-166 4.87342e-167 0.0 
9.71608e-169 1.09543e-169 0.0 
0.497282 0.0441901 0.0 
2.60738e-112 2.22427e-113 0.0 
0.0581856 -0.0066903 0.0 
0.0203334 -0.00123326 0.0 
1.01447 -0.00989826 0.0 
0.778654 0.255365 0.0 
0.750004 0.053746 0.0 
4.42302e-164 1.7004e-164 0.0 
0.786451 0.124472 0.0 
0.509124 0.0975786 0.0 
0.0103827 0.000477587 0.0 
0.0691769 0.00273066 0.0 
3.01469e-05 1.99752e-06 0.0 
0.440977 0.010445 0.0 
0.0704079 -0.00606534 0.0 
0.00723546 -0.000149557 0.0 
0.0126476 -0.00058829 0.0 
6.5325e-05 9.32951e-06 0.0 
0.463545 0.0267169 0.0 
0.999997 -0.000270869 0.0 
1.13445 0.120319 0.0 
1.01562 0.0577714 0.0 
0.0301089 0.00172451 0.0 
0.67822 0.232943 0.0 
0.0301898 -0.00278373 0.0 
0.019117 -0.00367384 0.0 
0.000182036 3.80405e-05 0.0 
0.891644 0.318559 0.0 
0.0129857 -0.000812653 0.0 
0.0502395 -0.00803242 0.0 
1.00145 0 0.0 
9.46087e-172 1.00417e-172 0.0 
7.25839e-162 3.31406e-162 0.0 
1.1172 0.133658 0.0 
0.516762 -0.0557104 0.0 
0.711207 0.370873 0.0 
0.769516 -0.0991613 0.0 
0.0218256 -0.00218972 0.0 
0.0240359 -0.00179745 0.0 
4.4597e-158 -2.42614e-159 0.0 
0.741753 -0.0916907 0.0 
0.13026 0.00684756 0.0 
1.00007 -0.000467691 0.0 
0.729215 0.30082 0.0 
1.00039 -0.000380376 0.0 
0.171333 0.00828696 0.0 
0.000459897 1.26072e-05 0.0 
-3.80274e-24 -1.96952e-24 0.0 
1.23472e-124 -2.35335e-126 0.0 
0.0155138 -0.000509336 0.0 
0.0724265 -0.00222019 0.0 
0.620959 -0.307401 0.0 
0.0204024 -0.00337216 0.0 
1.67982e-161 -9.65924e-162 0.0 
1.04558 -0.258908 0.0 
1.04053 -0.200394 0.0 
0.874462 0.107821 0.0 
-8.96808e-176 6.60897e-177 0.0 
0.904638 0.0473761 0.0 
0.358126 -0.000905365 0.0 
1.00223 -0.00269471 0.0 