<VTKFile type="UnstructuredGrid" version="0.1" byte_order="LittleEndian">
  <UnstructuredGrid>
    <Piece NumberOfPoints="12835" NumberOfCells="25510">
      <Points>
        <DataArray type = "Float64" NumberOfComponents="3" format="ascii">
0 0 0.0 
14 0 0.0 
14 8 0.0 
0 8 0.0 
4.16782 4.09801 0.0 
4.04446 4.03149 0.0 
5.07015 4.00673 0.0 
0.645476 1.78773 0.0 
4.09208 3.95602 0.0 
11.8467 7.80818 0.0 
4.00131 3.99967 0.0 
4.12813 3.9578 0.0 
3.96554 4.00011 0.0 
4.02507 4.01902 0.0 
4.02687 3.9777 0.0 
4.54602 4.05011 0.0 
0.200421 3.56934 0.0 
4.27759 4.05614 0.0 
4.01323 3.99894 0.0 
4.03658 4.01186 0.0 
4.25007 4.10489 0.0 
4.17926 4.05465 0.0 
13.5504 7.21042 0.0 
4.82612 3.99013 0.0 
4.0106 4.0844 0.0 
10.3175 6.86369 0.0 
4.25738 4.07616 0.0 
13.2239 4.6105 0.0 
4.96284 4.02182 0.0 
4.36723 4.05555 0.0 
4.50605 4.06382 0.0 
4.12454 4.06455 0.0 
4.7959 4.03439 0.0 
11.2875 2.28592 0.0 
4.17759 3.97818 0.0 
4.09533 4.03459 0.0 
4.00922 3.99881 0.0 
4.19874 3.93672 0.0 
4.56211 3.97847 0.0 
4.79135 4.03456 0.0 
3.93682 3.99751 0.0 
4.11094 4.03801 0.0 
4.70285 8 0.0 
4.0361 4.22831 0.0 
4.00714 3.98811 0.0 
4.18917 3.9673 0.0 
4.35238 3.96971 0.0 
4.43895 3.97221 0.0 
4.01706 3.99618 0.0 
4.02815 4.04832 0.0 
4.01923 3.99343 0.0 
4.51567 3.97651 0.0 
3.83794 4.02618 0.0 
4.94058 4.01176 0.0 
4.10817 3.96062 0.0 
4.04566 3.97793 0.0 
4.9119 3.99535 0.0 
4.31033 1.42271 0.0 
4.99278 3.91924 0.0 
4.61386 4.06549 0.0 
4.01647 3.99236 0.0 
4.18458 4.04429 0.0 
4.44226 7.65296 0.0 
4.97466 4.02609 0.0 
4.22906 4.08121 0.0 
4.0339 4.05256 0.0 
9.45188 5.45631 0.0 
4.27006 4.09617 0.0 
4.10517 3.97015 0.0 
12.6108 1.83155 0.0 
4.04895 3.98471 0.0 
4.17785 3.95317 0.0 
3.33181 3.67591 0.0 
5.00785 4.00312 0.0 
10.8833 7.73481 0.0 
14 6.11123 0.0 
3.99577 3.99636 0.0 
0.293813 2.30474 0.0 
3.96293 3.99513 0.0 
4.04956 3.95606 0.0 
4.1028 4.04936 0.0 
4.64539 3.981 0.0 
8.59369 4.57832 0.0 
3.92281 3.95352 0.0 
4.49794 4.06464 0.0 
3.99922 3.99464 0.0 
5.03684 4.01469 0.0 
3.99959 3.99949 0.0 
5.2424 4.03071 0.0 
4.19705 4.04896 0.0 
4.44939 3.91413 0.0 
5.72728 4.0124 0.0 
14 5.21618 0.0 
4.16652 4.11068 0.0 
10.4362 5.07898 0.0 
4.40792 6.2929 0.0 
4.28749 4.07809 0.0 
3.94943 3.96456 0.0 
6.95216 7.71549 0.0 
5.00991 4.10716 0.0 
4.80536 4.01156 0.0 
4.04162 4.00806 0.0 
4.04279 3.97999 0.0 
3.87313 3.619 0.0 
4.35343 3.94951 0.0 
12.4727 0.827649 0.0 
2.32817 6.90777 0.0 
3.05349 4.57182 0.0 
4.42637 3.97236 0.0 
4.32406 4.07054 0.0 
4.02155 3.98218 0.0 
4.37798 8 0.0 
4.12623 4.0709 0.0 
4.08373 4.05666 0.0 
4.09568 4.05562 0.0 
12.5336 5.31907 0.0 
2.84695 6.56376 0.0 
4.27852 0 0.0 
5.04845 4.04311 0.0 
4.3384 3.97056 0.0 
3.91232 4.09563 0.0 
4.48872 4.06351 0.0 
4.13434 4.07811 0.0 
1.8988 7.32519 0.0 
4.14182 3.96885 0.0 
4.27578 4.05019 0.0 
4.9729 3.99741 0.0 
3.88032 3.95003 0.0 
4.59269 3.91266 0.0 
4.35017 3.94589 0.0 
4.38004 3.97006 0.0 
4.22225 3.98357 0.0 
5.13926 3.98686 0.0 
5.52872 3.97338 0.0 
4.1741 4.07586 0.0 
3.98196 3.98783 0.0 
4.02169 4.00411 0.0 
4.00094 4.00583 0.0 
2.07324 4.66252 0.0 
4.1158 3.86347 0.0 
4.09346 4.05988 0.0 
3.91267 2.38613 0.0 
4.02873 4.0411 0.0 
4.88146 4.04087 0.0 
4.27231 0.148249 0.0 
4.08859 4.05676 0.0 
4.0826 3.93583 0.0 
4.12124 3.98374 0.0 
4.27922 4.06659 0.0 
3.99849 4.00548 0.0 
6.49993 5.82534 0.0 
4.24743 3.99271 0.0 
4.00458 3.99165 0.0 
4.99458 4.03862 0.0 
0.162242 0.338835 0.0 
4.02244 4.02798 0.0 
4.56821 4.05075 0.0 
4.12635 4.07409 0.0 
0 1.4212 0.0 
4.25778 4.0794 0.0 
2.3015 0.745221 0.0 
4.0139 4.00409 0.0 
4.67379 3.98417 0.0 
1.22564 1.09337 0.0 
5.01331 3.98969 0.0 
4.12537 4.05679 0.0 
4.9908 4.01037 0.0 
4.75348 4.03995 0.0 
4.0644 3.93891 0.0 
4.08493 4.0641 0.0 
4.32839 4.08109 0.0 
4.00554 4.01182 0.0 
4.39115 4.07655 0.0 
4.8833 4.04345 0.0 
4.19206 3.91938 0.0 
5.81702 3.84848 0.0 
4.41558 4.05658 0.0 
4.09641 3.95124 0.0 
4.12454 3.92729 0.0 
4.41364 3.97197 0.0 
3.96293 4.03138 0.0 
4.06298 3.99231 0.0 
4.35916 4.0592 0.0 
4.23532 3.95103 0.0 
4.15667 4.04972 0.0 
3.99252 4.00665 0.0 
4.76409 3.98748 0.0 
4.17636 4.06982 0.0 
4.32047 3.99871 0.0 
11.5927 7.20396 0.0 
3.94066 3.96869 0.0 
4.34254 3.97017 0.0 
3.95819 3.97698 0.0 
4.7981 4.03427 0.0 
4.32067 4.07795 0.0 
4.23165 4.07938 0.0 
3.99926 3.9979 0.0 
3.95778 3.98461 0.0 
4.64656 4.08528 0.0 
3.9419 3.97853 0.0 
4.19057 4.05281 0.0 
4.10081 3.94382 0.0 
4.12388 4.05285 0.0 
4.34674 4.05413 0.0 
6.88398 4.79117 0.0 
3.99651 4.05409 0.0 
13.0547 5.57089 0.0 
4.49091 3.97483 0.0 
5.00368 4.02219 0.0 
4.20402 4.03826 0.0 
3.9771 4.03148 0.0 
3.97395 3.93516 0.0 
4.22584 4.06787 0.0 
2.3482 3.72305 0.0 
4.15561 4.10177 0.0 
4.18309 4.12442 0.0 
3.96476 4.03852 0.0 
4.39631 4.08365 0.0 
3.99224 4.00372 0.0 
3.96822 4.02719 0.0 
3.97233 4.04194 0.0 
3.98573 3.91699 0.0 
4.15743 3.96216 0.0 
13.5856 5.01929 0.0 
4.20876 3.92492 0.0 
3.92251 4.00785 0.0 
8.88306 2.1165 0.0 
4.30929 4.04286 0.0 
9.51453 2.57832 0.0 
5.15491 3.95658 0.0 
1.0451 4.03774 0.0 
7.04471 8 0.0 
14 0.627351 0.0 
4.97388 3.99747 0.0 
4.13883 3.99016 0.0 
3.94564 3.99975 0.0 
5.00129 3.99352 0.0 
4.00756 4.02287 0.0 
4.00612 4.04547 0.0 
5.0401 4.02083 0.0 
4.98371 4.01321 0.0 
8.94541 8 0.0 
6.74549 7.48782 0.0 
3.99442 3.99468 0.0 
4.06068 3.97399 0.0 
4.3054 3.96872 0.0 
4.13763 4.05521 0.0 
4.97312 3.97823 0.0 
4.1384 3.95607 0.0 
4.08583 4.02136 0.0 
4.56786 4.06077 0.0 
3.9642 4.093 0.0 
10.4897 4.55687 0.0 
4.05428 3.94079 0.0 
9.70989 7.75915 0.0 
4.75571 4.03983 0.0 
4.02341 4.03456 0.0 
10.709 1.4165 0.0 
4.52724 7.41561 0.0 
5.05919 4.01855 0.0 
3.99176 3.9942 0.0 
5.01074 4.00405 0.0 
4.22714 3.92146 0.0 
4.00436 3.99818 0.0 
4.60397 3.95864 0.0 
4.37377 3.94452 0.0 
5.06694 4.12393 0.0 
4.06103 3.9941 0.0 
4.00126 4.01985 0.0 
1.24078 0.550265 0.0 
9.10545 7.45594 0.0 
2.38032 0.204862 0.0 
4.25954 3.96745 0.0 
4.73212 3.98542 0.0 
4.10406 3.96337 0.0 
1.89337 4.05759 0.0 
4.01517 4.03055 0.0 
4.06762 4.05479 0.0 
3.99882 3.99972 0.0 
8.33815 1.56787 0.0 
6.24949 7.79892 0.0 
5.1555 4.17357 0.0 
4.99662 4.15169 0.0 
3.99908 3.98836 0.0 
8.76112 4.31939 0.0 
4.12151 3.94609 0.0 
3.42105 7.42927 0.0 
4.80893 4.03088 0.0 
4.40067 3.94131 0.0 
4.21507 3.9482 0.0 
4.05466 4.02621 0.0 
4.97222 4.02124 0.0 
4.51028 4.06384 0.0 
4.15544 4.06044 0.0 
6.25452 4.08467 0.0 
8.05043 2.29646 0.0 
4.18361 4.3025 0.0 
9.79904 5.26367 0.0 
4.90772 4.03022 0.0 
1.52849 1.81588 0.0 
4.46649 4.07785 0.0 
5.1327 4.04445 0.0 
11.2253 4.76539 0.0 
4.11851 4.05833 0.0 
4.09289 4.07118 0.0 
4.47779 4.09651 0.0 
5.00502 4.05594 0.0 
6.82959 6.43656 0.0 
4.3355 4.07299 0.0 
3.9901 3.98452 0.0 
4.12408 3.94161 0.0 
4.0305 3.93329 0.0 
12.4786 3.70841 0.0 
1.98959 1.68137 0.0 
4.08146 3.94143 0.0 
4.14288 4.03378 0.0 
3.95731 3.9912 0.0 
4.03513 3.9876 0.0 
4.90628 3.97487 0.0 
4.05693 3.98896 0.0 
4.0643 3.97323 0.0 
4.32762 4.05648 0.0 
4.17969 4.07871 0.0 
4.0017 4.00679 0.0 
4.14916 3.96553 0.0 
6.001 0.398235 0.0 
5.40744 6.35659 0.0 
4.14766 3.96189 0.0 
3.59386 3.60045 0.0 
13.4409 6.96746 0.0 
4.80946 3.98909 0.0 
12.7455 3.78887 0.0 
5.34935 2.83618 0.0 
4.66116 4.04962 0.0 
4.2489 4.09629 0.0 
5.06347 3.99507 0.0 
4.35418 4.08437 0.0 
4.2295 4.0772 0.0 
4.27455 4.0634 0.0 
5.08198 4.04957 0.0 
5.02947 4.00625 0.0 
4.65428 3.98254 0.0 
8.41067 7.58029 0.0 
3.98562 4.0511 0.0 
4.14553 4.06021 0.0 
4.20902 3.94092 0.0 
3.66733 4.19403 0.0 
4.58584 3.97854 0.0 
4.58042 4.0569 0.0 
3.96453 3.95544 0.0 
3.99883 4.01382 0.0 
11.4002 1.66125 0.0 
8.92204 1.29469 0.0 
4.34941 4.12037 0.0 
9.66894 1.90453 0.0 
11.233 0.251178 0.0 
4.01165 4.04753 0.0 
4.06617 3.97591 0.0 
9.56241 4.68768 0.0 
4.73572 3.98551 0.0 
4.23985 4.08128 0.0 
4.81856 3.78325 0.0 
4.13381 4.04659 0.0 
5.00014 7.33916 0.0 
4.17558 4.06011 0.0 
3.99752 4.02893 0.0 
4.01884 3.99521 0.0 
4.26259 4.0847 0.0 
4.85194 3.99116 0.0 
4.62732 3.98053 0.0 
4.35275 4.07092 0.0 
4.24497 3.97875 0.0 
10.011 3.51719 0.0 
3.88357 4.09673 0.0 
4.01204 4.00974 0.0 
4.9921 3.96662 0.0 
4.10068 3.97061 0.0 
10.3864 0.53398 0.0 
4.08637 3.98671 0.0 
8.1554 7.24604 0.0 
4.14411 3.96855 0.0 
3.74281 0.837793 0.0 
4.00774 3.99043 0.0 
4.27475 4.10642 0.0 
3.98628 3.99582 0.0 
4.0911 3.98345 0.0 
4.14295 3.97632 0.0 
4.37635 3.78426 0.0 
4.35834 4.07465 0.0 
4.13818 4.07615 0.0 
4.36004 4.07065 0.0 
5.0218 3.98124 0.0 
4.17149 3.94913 0.0 
4.19507 4.0651 0.0 
4.0766 3.95386 0.0 
5.10311 4.0306 0.0 
5.05289 4.02468 0.0 
5.07095 2.11145 0.0 
4.17854 4.06096 0.0 
11.821 3.46845 0.0 
4.08645 3.96932 0.0 
4.11542 4.11215 0.0 
3.98027 4.05285 0.0 
4.99652 4.00204 0.0 
3.75547 3.86036 0.0 
6.78544 0.342776 0.0 
6.37019 1.65343 0.0 
4.63498 4.21005 0.0 
4.22898 4.08419 0.0 
4.04077 3.99338 0.0 
11.3965 4.91754 0.0 
13.2262 0 0.0 
4.10231 3.92419 0.0 
8.11163 7.52898 0.0 
13.1066 7.48347 0.0 
4.89756 4.04445 0.0 
4.01378 3.94232 0.0 
13.4588 2.01213 0.0 
4.28104 4.06784 0.0 
4.00157 4.00798 0.0 
5.0542 4.01438 0.0 
4.64071 3.96642 0.0 
4.35076 4.03422 0.0 
5.18793 4.05304 0.0 
9.02813 5.21284 0.0 
6.86406 0 0.0 
4.54333 6.57982 0.0 
4.2894 4.08496 0.0 
3.98111 4.00805 0.0 
2.07932 0.548086 0.0 
3.98141 4.06642 0.0 
4.04062 4.0139 0.0 
3.99352 3.97666 0.0 
4.17387 3.91323 0.0 
4.96746 3.99605 0.0 
4.67002 3.84867 0.0 
9.17362 1.43142 0.0 
3.98468 3.9804 0.0 
4.27492 4.05293 0.0 
4.10308 3.95678 0.0 
13.1998 4.11626 0.0 
4.56463 4.13335 0.0 
13.7847 1.06498 0.0 
9.8062 4.58039 0.0 
12.3354 6.04076 0.0 
4.95788 3.99684 0.0 
3.98206 3.97395 0.0 
12.9901 3.16776 0.0 
4.22361 3.96607 0.0 
4.58614 3.97944 0.0 
4.94368 4.01169 0.0 
4.33516 4.06812 0.0 
4.04858 0.861856 0.0 
1.85807 0.936226 0.0 
4.00375 4.03912 0.0 
4.15196 4.05862 0.0 
4.36227 4.07304 0.0 
3.99121 4.03339 0.0 
3.99417 4.04189 0.0 
4.19293 3.95524 0.0 
4.61827 4.02208 0.0 
0.21007 0.866005 0.0 
4.52458 4.11076 0.0 
4.5055 3.97531 0.0 
4.74475 4.04041 0.0 
3.98163 4.03116 0.0 
12.6321 6.01339 0.0 
3.99486 4.0255 0.0 
3.98826 4.00843 0.0 
4.84839 4.04358 0.0 
9.28444 4.76484 0.0 
3.98918 4.03714 0.0 
1.78293 0 0.0 
[...]
<PointData>
  <DataArray type = "Float64" Name="Vitesse" NumberOfComponents="3" format="ascii">
1 0 0.0 
1.00255 0 0.0 
1.00002 0 0.0 
1 0 0.0 
1.02931 0.172844 0.0 
1.39231e-24 3.33631e-25 0.0 
0.0925885 0.00144399 0.0 
1.00005 -0.000602137 0.0 
0.622407 -0.0818064 0.0 
1.00318 -0.000332731 0.0 
2.61478e-67 -5.45131e-67 0.0 
0.380146 -0.0282858 0.0 
0.646002 -0.058731 0.0 
-2.90782e-88 -8.40024e-89 0.0 
0.309974 -0.106015 0.0 
7.58839e-90 -5.92804e-92 0.0 
0.999998 -3.23279e-05 0.0 
3.29533e-197 2.87342e-198 0.0 
0 0 0.0 
0 0 0.0 
0.948315 0.0977098 0.0 
0 0 0.0 
1.00026 -0.000971886 0.0 
0.00566006 0.000176509 0.0 
0.884383 0.244697 0.0 
1.006 -0.00147843 0.0 
0.281869 0.0198184 0.0 
1.00684 -0.00739006 0.0 
0.0419023 -0.00618233 0.0 
0 0 0.0 
0.0101025 -0.000540851 0.0 
0.521081 0.0993146 0.0 
0.00530206 -0.000756347 0.0 
1.0079 0.00237224 0.0 
0 0 0.0 
0 0 0.0 
0 0 0.0 
0.754296 -0.0409946 0.0 
1.38923e-05 2.14349e-06 0.0 
0.00309325 -0.000249446 0.0 
0.763306 -0.0388333 0.0 
0 0 0.0 
1.00838 0 0.0 
0.998316 0.12846 0.0 
0.208509 -0.146126 0.0 
3.68099e-05 -5.80048e-08 0.0 
0.0124674 0.000125227 0.0 
0.0134522 0.000514975 0.0 
0 0 0.0 
0.835045 0.359313 0.0 
1.22717e-265 -3.51715e-266 0.0 
0.000193473 2.29873e-05 0.0 
0.887705 0.00774938 0.0 
0.000970283 -6.48355e-05 0.0 
0.358678 -0.033706 0.0 
1.70474e-38 -2.20502e-39 0.0 
4.41202e-25 2.81356e-26 0.0 
1.00787 -0.00354257 0.0 
0.739846 0.0318705 0.0 
0.115257 -0.00876474 0.0 
0 0 0.0 
0 0 0.0 
1.00804 0.000771696 0.0 
0.0665521 -0.0100783 0.0 
0.507349 0.0489308 0.0 
0.867833 0.34939 0.0 
1.00816 -0.00260996 0.0 
0.756045 0.0629227 0.0 
1.04756e-15 -1.02347e-16 0.0 
1.00418 0.00322084 0.0 
0 0 0.0 
0.396054 -0.0166251 0.0 
0.982683 -0.0109265 0.0 
0.0248225 -0.00481188 0.0 
1.00484 -0.000427837 0.0 
0.998928 -0.0015667 0.0 
0.245462 -0.292784 0.0 
0.999995 -0.000273265 0.0 
0.671094 -0.0823406 0.0 
0.933584 -0.234525 0.0 
0.0455838 0.00590519 0.0 
0.0133326 0.000349977 0.0 
1.00928 -0.00327567 0.0 
0.841509 -0.0928376 0.0 
0.0162721 -0.000346667 0.0 
0.198662 -0.293911 0.0 
0.0617839 -0.00934489 0.0 
0.0304739 -0.0826956 0.0 
0.247079 -0.0122447 0.0 
0 0 0.0 
0.838986 -0.00107399 0.0 
0.418955 -0.00258929 0.0 
0.995063 -2.38119e-06 0.0 
1.09076 0.183612 0.0 
1.00828 -0.00361721 0.0 
1.01142 0.00476943 0.0 
0.273514 0.0138911 0.0 
0.794511 -0.131091 0.0 
1.009 -0.000245095 0.0 
0.737097 -0.049589 0.0 
0 0 0.0 
0 0 0.0 
-3.22291e-56 4.16794e-57 0.0 
0.990955 -0.0509938 0.0 
0.34741 0.00377388 0.0 
1.00469 0.00120004 0.0 
1.00232 0.00245141 0.0 
0.991158 0.0110813 0.0 
0.00584216 0.000760424 0.0 
0.0414766 0.000568019 0.0 
0.0977824 -0.0339307 0.0 
1.00777 0 0.0 
0.718176 0.143343 0.0 
0.609626 0.16223 0.0 
0.43532 0.108701 0.0 
0.997125 -0.00829552 0.0 
1.00359 0.00412012 0.0 
1.00625 0 0.0 
0.197242 -0.0262058 0.0 
2.54951e-12 2.12683e-13 0.0 
0.874201 0.0867294 0.0 
2.90938e-14 -1.56889e-15 0.0 
0.851125 0.167517 0.0 
1.00155 0.00117709 0.0 
1.4105e-23 1.13032e-24 0.0 
0 0 0.0 
0.00395682 0.000277454 0.0 
0.875073 -0.0557976 0.0 
0.805965 0.010102 0.0 
0.412724 0.00286667 0.0 
0.016904 0.000657995 0.0 
0 0 0.0 
0.216563 0.0160698 0.0 
0.450487 0.0116145 0.0 
0.581828 0.0828487 0.0 
0.590302 -0.227931 0.0 
0 0 0.0 
0.0161125 0.0270258 0.0 
0.997503 0.00343913 0.0 
1.06708 -0.127854 0.0 
0.626753 0.159121 0.0 
1.00788 -0.00965363 0.0 
0.731766 0.332366 0.0 
0.0940468 -0.0108479 0.0 
1.0063 -0.000315029 0.0 
0.558989 0.14412 0.0 
1.06166 -0.19238 0.0 
0 0 0.0 
6.9209e-12 2.15207e-13 0.0 
0.0771794 0.062573 0.0 
1.01212 -0.00287741 0.0 
0 0 0.0 
0.061096 -0.0502374 0.0 
0.145482 -0.0208571 0.0 
1 -3.12816e-05 0.0 
0.335472 0.176527 0.0 
1.43291e-70 5.06015e-73 0.0 
0.802408 0.163664 0.0 
1 0 0.0 
0.37338 0.0276833 0.0 
1.00182 -0.00130884 0.0 
0 0 0.0 
6.60142e-22 8.68252e-23 0.0 
1.0004 -0.000869788 0.0 
0.105511 0.0188892 0.0 
0.191105 0.0321897 0.0 
0.019743 -0.00530762 0.0 
0.00559535 -0.0005726 0.0 
1.06033 -0.227978 0.0 
0.824334 0.224867 0.0 
0.294548 0.0074135 0.0 
2.3327e-54 1.19735e-54 0.0 
0.165064 -0.000495924 0.0 
0.111915 -0.012523 0.0 
1.01859 -0.0784492 0.0 
0.974434 0.0125108 0.0 
0 0 0.0 
0.753364 -0.102131 0.0 
1.05423 -0.134238 0.0 
0.0052343 -0.000123036 0.0 
0.706825 0.0962751 0.0 
0 0 0.0 
0 0 0.0 
0.371306 -0.00634303 0.0 
2.78564e-209 5.62153e-210 0.0 
0.283439 0.0461133 0.0 
0.00371091 0.000176482 0.0 
0.371722 0.0481935 0.0 
1.89598e-152 1.77334e-153 0.0 
1.00377 -0.00144201 0.0 
0.797714 -0.106085 0.0 
0.000744559 3.78273e-05 0.0 
0.743232 -0.135118 0.0 
0.00616054 -0.000828833 0.0 
0.226263 0.00622562 0.0 
0.446061 0.040946 0.0 
0.0724832 -0.156593 0.0 
0.720427 -0.112461 0.0 
0.383248 -0.0220297 0.0 
0.775843 -0.0909499 0.0 
0 0 0.0 
0.915506 -0.131472 0.0 
0.0283289 0.00445325 0.0 
-9.21025e-197 -4.00361e-198 0.0 
1.01062 -0.00548853 0.0 
0.777166 0.263046 0.0 
0.996454 -0.0049728 0.0 
0.0064165 0.000837919 0.0 
0.0630811 -0.0175991 0.0 
0 0 0.0 
0.661644 0.155351 0.0 
0.872205 -0.197109 0.0 
0.107611 0.00615621 0.0 
0.995279 -0.00106215 0.0 
1.06685 0.19155 0.0 
1.10688 0.168676 0.0 
0.724193 0.121697 0.0 
0.308238 0.000323808 0.0 
0.270173 -0.0409797 0.0 
0.673554 0.0996604 0.0 
0.721732 0.156305 0.0 
0.919452 -0.194973 0.0 
0.171585 -0.00655117 0.0 
0.999362 -0.00159011 0.0 
0.933827 -0.0580099 0.0 
0.792687 -0.0103086 0.0 
1.00839 0.000868316 0.0 
0 0 0.0 
1.00823 0.000966722 0.0 
0.447636 0.0285376 0.0 
0.999351 0.000381374 0.0 
1.00876 0 0.0 
1.00248 0.000733161 0.0 
0.00426474 0.000396991 0.0 
0 0 0.0 
0.736273 -0.0391969 0.0 
0.0640627 0.0141978 0.0 
0.475185 0.330719 0.0 
0.76141 0.327796 0.0 
0.0775844 -0.0140196 0.0 
0.0231297 -0.00472574 0.0 
1.00703 0 0.0 
1.00926 -0.000403201 0.0 
0.329587 -0.324946 0.0 
0.0475951 -0.00270081 0.0 
0.00697941 0.000479844 0.0 
0.037831 0.00388401 0.0 
0.187282 0.0111971 0.0 
0.405201 -0.0271718 0.0 
0 0 0.0 
0.0265408 -0.00199509 0.0 
0.859619 0.153044 0.0 
1.00913 -0.00288008 0.0 
1.05426 -0.249603 0.0 
1.00641 -0.000253614 0.0 
0.0065494 -0.000736803 0.0 
0.610856 0.306454 0.0 
1.00715 0.00111016 0.0 
1.00847 0.00119022 0.0 
0.0871838 -0.00943019 0.0 
0.393776 -0.293528 0.0 
0.0294013 -0.00488244 0.0 
0.94647 -0.0532691 0.0 
0 0 0.0 
0.252427 0.00905333 0.0 
0.431236 0.00407636 0.0 
0.858123 -0.0505854 0.0 
0 0 0.0 
0.452405 0.337017 0.0 
1.00049 -0.000464067 0.0 
1.00703 -0.000476516 0.0 
1.00201 -0.000373136 0.0 
0.0117002 3.75737e-05 0.0 
0.00856643 0.000453822 0.0 
0.269939 -0.0247623 0.0 
0.997244 0.000947214 0.0 
0.603187 0.336827 0.0 
0.718589 0.219948 0.0 
0.0491532 -0.117778 0.0 
1.00839 0.00076528 0.0 
1.00944 -8.03839e-05 0.0 
1.00823 -0.0425405 0.0 
0.984738 -0.0488068 0.0 
0.478339 -0.446076 0.0 
1.00829 -0.00443729 0.0 
0.77156 -0.083226 0.0 
1.00538 0.00164531 0.0 
9.03781e-10 -7.86813e-11 0.0 
0.478634 0.00417702 0.0 
0.462155 -0.0134357 0.0 
0 0 0.0 
0.0444468 -0.00696608 0.0 
0.0143759 -0.000798609 0.0 
0.133555 0.0211736 0.0 
0.733679 -0.0104447 0.0 
1.00906 0.00142054 0.0 
1.05544 0.0945368 0.0 
1.00816 -0.00297308 0.0 
0.0499787 -0.00638926 0.0 
1.00032 -0.00173289 0.0 
0.200588 -0.00649611 0.0 
0.255624 -0.0227101 0.0 
1.00965 -0.00681441 0.0 
0.322439 0.0613674 0.0 
0.918326 0.238761 0.0 
0.525402 -0.00781099 0.0 
0.277265 -0.0306896 0.0 
1.01042 -0.00169353 0.0 
0.0960336 0.00243802 0.0 
0.594578 -0.346156 0.0 
0.868495 -0.097506 0.0 
1.00503 -0.263579 0.0 
0.991399 0.0108696 0.0 
1.00081 -0.00238391 0.0 
1.02168 -0.185011 0.0 
-2.45039e-302 -4.1967e-303 0.0 
0.705084 -0.0871832 0.0 
0 0 0.0 
0.188109 0.00864221 0.0 
0 0 0.0 
0.0566749 -0.0138488 0.0 
-6.56135e-193 -2.85216e-194 0.0 
0.63754 0.0896902 0.0 
2.03934e-49 2.32849e-49 0.0 
0.0835845 -0.00253265 0.0 
1.00856 -0.000121361 0.0 
1.01273 0.000587908 0.0 
0.196691 -0.00846186 0.0 
0.981492 -0.0254433 0.0 
1.00026 -0.00135484 0.0 
0.00839488 0.000778355 0.0 
0.978169 0.00843761 0.0 
1.01761 0.000869619 0.0 
5.68993e-22 -4.61478e-23 0.0 
0.810846 0.0789524 0.0 
0.121192 0.0111475 0.0 
0.346864 0.00479318 0.0 
0.388816 0.0349857 0.0 
1.94254e-28 5.60502e-30 0.0 
0.260356 -0.0287437 0.0 
0.0531689 -0.00206201 0.0 
0.000701939 8.10788e-05 0.0 
1.00762 -0.000369971 0.0 
0.752814 0.219707 0.0 
0.19044 0.032427 0.0 
0.643149 -0.0279774 0.0 
0.957347 0.0287134 0.0 
0.00936174 0.000442467 0.0 
-1.52033e-39 1.02451e-40 0.0 
0.810265 -0.182211 0.0 
0.311308 0.265554 0.0 
1.00686 0.00191915 0.0 
1.0079 0.000459464 0.0 
0.988364 0.0513389 0.0 
1.00794 0.000740131 0.0 
1.0062 0.00026081 0.0 
0.790621 0.342403 0.0 
-3.27511e-45 9.02503e-46 0.0 
1.00738 -0.00338703 0.0 
0.00896709 0.000269419 0.0 
0.474105 0.0423633 0.0 
1.055 0.00998338 0.0 
0 0 0.0 
1.00941 0.000863775 0.0 
2.77414e-07 5.14587e-08 0.0 
0.607561 0.315492 0.0 
0 0 0.0 
0.50528 0.0382115 0.0 
0.0076223 0.000595561 0.0 
0.00826289 0.000186915 0.0 
0.047325 -0.00212825 0.0 
3.7215e-118 2.14678e-119 0.0 
1.00791 0.000915308 0.0 
0.887029 0.0654297 0.0 
0 0 0.0 
0.308321 0.0213494 0.0 
1.21841e-16 -3.69642e-18 0.0 
1.00698 0.00035342 0.0 
0 0 0.0 
1.00796 -0.000709687 0.0 
2.313e-19 1.85053e-20 0.0 
1.00532 -0.00212483 0.0 
-1.10671e-218 5.98815e-219 0.0 
0.92394 0.0802283 0.0 
0.460956 -0.192009 0.0 
0 0 0.0 
0 0 0.0 
1.07158 -0.0359588 0.0 
0.128182 -0.00193231 0.0 
0.785671 0.148934 0.0 
0.0455052 -0.000389401 0.0 
0.181112 0.0237316 0.0 
0.521071 -0.0278048 0.0 
0.11706 0.0167072 0.0 
0.801181 -0.1405 0.0 
0.156827 -0.0161421 0.0 
0.0998294 -0.0148926 0.0 
1.01262 -0.00268848 0.0 
0.0402666 0.00366203 0.0 
1.02234 0.00567545 0.0 
0.096563 -0.00705741 0.0 
1.06493 0.220953 0.0 
0.759544 0.197833 0.0 
0.00208009 -0.000316687 0.0 
0.94451 -0.0352685 0.0 
1.00851 9.40894e-05 0.0 
1.01014 0.00051906 0.0 
1.10115 -0.00801423 0.0 
0.589622 0.0593216 0.0 
0 0 0.0 
1.00762 -0.00743375 0.0 
1.00352 0 0.0 
1.0857 -0.166371 0.0 
1.00791 -0.000438146 0.0 
1.00098 -0.000764805 0.0 
0.127586 -0.0139957 0.0 
0.952145 -0.289366 0.0 
1.00266 0.00300765 0.0 
7.5756e-07 2.35563e-08 0.0 
0.0509924 0.0620238 0.0 
0.0770827 -0.00645892 0.0 
0.171399 0.007006 0.0 
1.71361e-171 1.60277e-172 0.0 
0.343944 -0.0256739 0.0 
1.0089 -0.0027989 0.0 
1.00833 1.08321e-56 0.0 
1.01064 0.00328207 0.0 
0.450226 0.0262666 0.0 
0.504176 0.0096798 0.0 
1.00146 -0.000851597 0.0 
0.806035 0.197846 0.0 
0 0 0.0 
0.708387 -0.377803 0.0 
1.0735 -0.0982861 0.0 
0.0140574 0.000950889 0.0 
1.05592 0.00339012 0.0 
1.00788 0.000494212 0.0 
0.656777 -0.285736 0.0 
0 0 0.0 
0.527574 -0.0576635 0.0 
0.970606 -0.00416222 0.0 
0.963247 -0.0108707 0.0 
1.00261 0.00134453 0.0 
1.00724 -0.00311377 0.0 
1.00216 -0.00433208 0.0 
0.0029673 0.000118667 0.0 
0.715675 -0.267129 0.0 
1.0024 0.00779218 0.0 
0.0356559 -0.000341098 0.0 
5.40479e-12 3.76135e-13 0.0 
0.00174075 -0.000261871 0.0 
4.55548e-09 4.4444e-12 0.0 
1.00618 -0.00210286 0.0 
1.00109 -0.00125732 0.0 
0.716092 0.336971 0.0 
0.0768376 0.0161902 0.0 
0.0945379 -0.000843516 0.0 
0.647736 0.256355 0.0 
0.71173 0.271003 0.0 
0.316092 -0.00920982 0.0 
3.2743e-182 3.06251e-183 0.0 
1.00001 -0.000111591 0.0 
0.734211 -0.0113923 0.0 
0.00723337 0.000551004 0.0 
0.00201794 -0.000151951 0.0 
0.64665 0.180993 0.0 
1.00149 -0.00394564 0.0 
0.565823 0.287916 0.0 
0.395746 0.0495241 0.0 
0.0914345 -0.0104095 0.0 
1.00825 -0.003302 0.0 
0.676752 0.241588 0.0 
1.00113 0 0.0 
0.0119187 0.000446803 0.0 
0.70865 0.375282 0.0 
1.00951 -0.00125696 0.0 
0.0114829 -0.00787745 0.0 
0.556225 -0.0639025 0.0 
0.539684 0.0985307 0.0 
0.727906 0.308172 0.0 
1.00035 -0.000264113 0.0 
0.904667 0.0260377 0.0 
0.0620028 -0.00811119 0.0 
0.345297 -0.0246285 0.0 
5.86856e-12 -4.36975e-13 0.0 
0.607985 -0.29171 0.0 
0.00882959 0.000581223 0.0 
0 0 0.0 
0.161563 -0.00987927 0.0 
5.85916e-23 -3.08312e-24 0.0 
0 0 0.0 
2.83842e-22 -2.29923e-23 0.0 
1.00188 -0.00274017 0.0 
1.01074 0.00156069 0.0 
1.00058 0.00658431 0.0 
0.995674 0.000742677 0.0 
0.762142 0.305416 0.0 
0.13226 0.00840043 0.0 
9.52229e-09 -8.46703e-10 0.0 
0 0 0.0 
0.424627 -0.123798 0.0 
1.00847 0.00302072 0.0 
0.995721 -0.00600391 0.0 
0.578752 -0.43321 0.0 
0.0178208 0.000782601 0.0 
1 0.000249335 0.0 
1.00031 0 0.0 
0.448798 -0.10055 0.0 
0.541051 -0.0340236 0.0 
0.278185 0.0240229 0.0 
0 0 0.0 
0.854136 0.215787 0.0 
0.722133 0.0551898 0.0 
0.496486 0.107135 0.0 
0.0134971 -0.0060113 0.0 
0.0663508 -0.0014343 0.0 
0.780967 0.366714 0.0 
0.00894164 0.000470135 0.0 
0.00237737 -0.000325095 0.0 
5.01527e-18 -2.3207e-19 0.0 
1.00691 -0.0016995 0.0 
0 0 0.0 
0.99936 -0.00113307 0.0 
0.472459 -0.0840718 0.0 
1.01267 -0.00226812 0.0 
0.163162 -0.0125897 0.0 
0.460258 -0.0431647 0.0 
1 0 0.0 
0.237256 0.00843814 0.0 
0.759033 0.372595 0.0 
0 0 0.0 
0.959792 0.0913961 0.0 
0 0 0.0 
0 0 0.0 
1.00938 0 0.0 
0.748772 0.277304 0.0 
0 0 0.0 
1.00342 0.00826139 0.0 
0.0445828 0.00576504 0.0 
-2.10224e-47 1.28127e-48 0.0 
0.150398 0.0179579 0.0 
0.00702701 0.00045285 0.0 
1.00745 0 0.0 
0.00986207 0.000147201 0.0 
0.788958 0.319008 0.0 
0.224044 -0.00229067 0.0 
0.0173401 -0.000569636 0.0 
0.784795 0.0261093 0.0 
0.490294 -0.0494847 0.0 
0.769019 0.365063 0.0 
0.747186 0.0635338 0.0 
0.578237 -0.0619312 0.0 
1.00087 0.00237523 0.0 
0.863368 0.354338 0.0 
0.492784 -0.172528 0.0 
0.814892 0.356524 0.0 
0.292849 0.0021848 0.0 
0.986043 0.00325627 0.0 
0.942895 -0.334746 0.0 
1.00762 0.000639824 0.0 
0.745634 -0.0903932 0.0 
0.805497 -0.0814072 0.0 
0.339703 -0.0562269 0.0 
0.140228 -0.0186423 0.0 
1.90215e-07 -6.59405e-08 0.0 
0.327063 0.0457905 0.0 
1.04987 0.102811 0.0 
0 0 0.0 
0.793922 0.100901 0.0 
1.00185 -0.00502079 0.0 
7.71749e-05 -3.73641e-07 0.0 
0.997289 0.00429284 0.0 
0.444275 0.000975185 0.0 
0.0459501 -0.00975358 0.0 
0.411857 -0.00453898 0.0 
0.809779 0.127221 0.0 
1.00854 0.00134385 0.0 
1.00688 -2.59052e-230 0.0 
0 0 0.0 
0.453745 -0.0476163 0.0 
0.838699 -0.0222079 0.0 
0.405433 -0.00283578 0.0 
6.06309e-48 2.48301e-48 0.0 
0.933145 0.0462735 0.0 
0.780245 0.136495 0.0 
0.0339178 -0.000865589 0.0 
1.08427 -0.0356264 0.0 
0.00362246 0.000345322 0.0 
0.188814 0.0400941 0.0 
0.799758 0.0733646 0.0 
1.00479 0 0.0 
1.25618e-55 -1.17804e-56 0.0 
0.696528 -0.44869 0.0 
0.767749 0.0876119 0.0 
0 0 0.0 
0.907866 0.165815 0.0 
1.00638 -0.000847157 0.0 
0.945506 -0.00951541 0.0 
1.00984 0.0122933 0.0 
0.771696 -0.289854 0.0 
0.0198634 -0.00643207 0.0 
1.00053 -0.000686542 0.0 
1.00715 -0.000255684 0.0 
4.79698e-44 5.47712e-44 0.0 
0.0331203 -0.0117599 0.0 
0.171724 0.0127845 0.0 
0.00722203 0.000430655 0.0 
0.0829649 -0.00831146 0.0 
0.859951 -0.143266 0.0 
1.01093 -0.00451967 0.0 
2.21667e-79 -5.82216e-81 0.0 
0.591302 0.0809252 0.0 
0.0430149 -0.0166396 0.0 
2.4287e-14 3.02197e-15 0.0 
0.227478 0.0168417 0.0 
0.325331 -0.0210962 0.0 
1.00835 0.00218727 0.0 
1.01253 0.000542339 0.0 
0.00592674 -0.000264733 0.0 
0.152815 0.0145689 0.0 
0 0 0.0 
1.00753 0 0.0 
0.570331 -0.0238839 0.0 
0.862022 0.258371 0.0 
0 0 0.0 
1.01701 -0.302458 0.0 
0.0227089 0.00412931 0.0 
1.00822 0.000459991 0.0 
0.298364 0.0167036 0.0 
1.01029 0.00238217 0.0 
0 0 0.0 
3.03372e-173 2.8375e-174 0.0 
0.892341 -0.300091 0.0 
0.106347 0.0402289 0.0 
0.966121 0.305364 0.0 
1.03386 -0.0533885 0.0 
1.50251e-14 -2.07916e-16 0.0 
0 0 0.0 
0.652949 -0.075413 0.0 
1.00034 -0.00111607 0.0 
0.681685 0.00944238 0.0 
1.01243 0.0015136 0.0 
0 0 0.0 
0.870614 0.269919 0.0 
0.280696 -0.029498 0.0 
0 0 0.0 
0.259124 -0.0474088 0.0 
0.438562 -0.0102098 0.0 
1.05941 0.219239 0.0 
1.00046 0.00516176 0.0 
0.0134785 -0.00100193 0.0 
0.313458 -0.0135727 0.0 
0.940984 -0.100731 0.0 
1.05246 -0.066483 0.0 
0.960369 0.0154412 0.0 
0.0126388 0.00130725 0.0 
1.01187 -0.294343 0.0 
1.12155 0.11741 0.0 
0.324502 0.168126 0.0 
0.316403 0.0752533 0.0 
0.902455 -0.0746651 0.0 
0 0 0.0 
0.0733044 -0.000177985 0.0 
1.02209 0.14328 0.0 
0.999514 -0.000240624 0.0 
1.0014 0.012911 0.0 
3.64768e-145 2.0399e-146 0.0 
0.96656 -0.167892 0.0 
0.0092012 -0.00548128 0.0 
0 0 0.0 
0.957263 0.0725052 0.0 
0.445538 -0.0380014 0.0 
0.946908 0.014033 0.0 
0.0390862 -0.00240197 0.0 
1.00906 0.255461 0.0 
0.726088 -0.0658577 0.0 
3.81467e-06 1.20371e-07 0.0 
0.0119328 4.59675e-06 0.0 
1.01191 0.00649382 0.0 
1.00553 -0.000374642 0.0 
0.608993 0.340923 0.0 
0.999894 -0.000126715 0.0 
0.608407 -0.464837 0.0 
0.0149273 -0.000571574 0.0 
0.855253 -0.118295 0.0 
0.727285 0.191365 0.0 
5.0995e-64 -6.20248e-65 0.0 
0.678371 0.199331 0.0 
0.728267 -0.235307 0.0 
0.0305656 -0.0320712 0.0 
0.0504918 -0.00580802 0.0 
0.081733 0.0089777 0.0 
0 0 0.0 
1.00857 -0.000920228 0.0 
1.03605 -0.273048 0.0 
0.835049 -0.162949 0.0 
0.760566 -0.290301 0.0 
1.00913 9.47989e-05 0.0 
0.56123 -0.297019 0.0 
0.0361482 -0.0153053 0.0 
0 0 0.0 
2.49825e-08 -2.89548e-09 0.0 
0.199723 -0.108668 0.0 
1.00862 0.000114811 0.0 
0.785597 -0.00252506 0.0 
0.590227 -0.0725182 0.0 
0.904716 -0.136176 0.0 
0.455549 -0.347111 0.0 
0.935054 -0.0213122 0.0 
0.954437 -0.26943 0.0 
0.968887 0.169414 0.0 
1.00911 -0.00226453 0.0 
1.00662 -0.0448378 0.0 
1.00797 0.000478006 0.0 
1.93992e-12 2.00868e-13 0.0 
3.66287e-32 8.38448e-33 0.0 
0 0 0.0 
0.262359 -0.131275 0.0 
0.0597453 -0.0181876 0.0 
0.0930583 -0.00885097 0.0 
0 0 0.0 
0.040415 0.00355603 0.0 
0.0103549 0.000523852 0.0 
0.00952504 0.000254821 0.0 
1.00315 0 0.0 
1.09235 -0.100302 0.0 
0.942173 -0.359743 0.0 
0.157472 0.017415 0.0 
0 0 0.0 
1.00968 -0.00333521 0.0 
0.0485138 -0.00342251 0.0 
0 0 0.0 
0 0 0.0 
0.472718 -0.0355842 0.0 
0.535998 -0.308577 0.0 
0.00767562 -1.99158e-05 0.0 
1.00943 -0.00254535 0.0 
0.574964 0.222961 0.0 
0.650727 0.277202 0.0 
1.8234e-173 1.70546e-174 0.0 
-2.27265e-40 1.97092e-41 0.0 
0.920382 -0.304803 0.0 
1.00003 0.000516079 0.0 
0.912986 0.145128 0.0 
0.933753 0.0113444 0.0 
0.998321 0.00475685 0.0 
0.95168 0.284109 0.0 
0.271309 -0.013489 0.0 
0.117837 -0.0214319 0.0 
0.818969 -0.244679 0.0 
1.00856 0.000306274 0.0 
0.161131 0.168121 0.0 
0 0 0.0 
0.00880686 0.000811979 0.0 
0.00434794 0.000396289 0.0 
1.00855 -0.00706448 0.0 
0.0331482 -0.0149993 0.0 
1.01725 -0.111224 0.0 
0.179674 0.00555194 0.0 
0.801583 -0.351908 0.0 
3.69799e-51 4.22232e-51 0.0 
0.838735 0.015564 0.0 
0 0 0.0 
0.905448 0.332202 0.0 
0 0 0.0 
1.00364 0.00274174 0.0 
1.00846 0.000740206 0.0 
0.64557 -0.00895465 0.0 
1.00904 0.00896052 0.0 
1.00597 0.000467028 0.0 
1.01456e-13 -5.57319e-15 0.0 
1.00571 0.153299 0.0 
1.09388 0.0895476 0.0 
0.843908 -0.260297 0.0 
0.744938 -0.429172 0.0 
1.00593 0.00479539 0.0 
0.241968 -0.00792747 0.0 
1.00899 0.000587799 0.0 
0 0 0.0 
0.977112 0.293499 0.0 
1.00786 0.00026861 0.0 
0.0100801 -0.000100863 0.0 
1.00051 0.000588002 0.0 
3.49573e-71 -4.52002e-72 0.0 
0.682406 -0.107693 0.0 
1.01667 0.0113316 0.0 
1.00993 0.00212248 0.0 
0 0 0.0 
0.95264 0.0434047 0.0 
1.00833 0.000246136 0.0 
0.692397 -0.289827 0.0 
1.19177e-12 -8.99159e-14 0.0 
0.910581 0.337734 0.0 
0 0 0.0 
0.172008 0.0981669 0.0 
0.968482 -0.341849 0.0 
0.10352 0.00868997 0.0 
7.28913e-166 6.81766e-167 0.0 
1.06253 0.0634108 0.0 
0.8725 -0.0450958 0.0 
0.634888 -0.135971 0.0 
2.94802e-16 -2.57235e-17 0.0 
1.12606 0.107227 0.0 
0.849271 0.332021 0.0 
1.6858e-07 1.0841e-08 0.0 
0 0 0.0 
1.00807 0.00191119 0.0 
0.0049176 -1.37269e-05 0.0 
1.00031 -0.00300437 0.0 
0.137257 0.0965253 0.0 
0 0 0.0 
0.561418 -0.20743 0.0 
0.000641265 2.94334e-05 0.0 
2.91434e-05 -2.05513e-06 0.0 
8.53023e-08 1.61459e-08 0.0 
0.80569 0.165196 0.0 
1.01146 -0.00199959 0.0 
0.842994 0.346178 0.0 
1.00129 0.00315506 0.0 
0.714425 -0.103108 0.0 
0.840834 0.322915 0.0 
0.845898 0.297118 0.0 
2.53555e-210 5.11684e-211 0.0 
2.14558e-05 1.14222e-06 0.0 
1.03623 -0.0194998 0.0 
1.00001 -0.000530371 0.0 
-1.58578e-194 -6.89324e-196 0.0 
0.880628 -0.0712571 0.0 
0.847826 0.0534298 0.0 
1.00822 -0.000437801 0.0 
0.616364 -0.116361 0.0 
1.00045 0 0.0 
0.662162 0.0871568 0.0 
0.0475441 -0.000670868 0.0 
0.0148445 -0.00716554 0.0 
0.564323 0.0554096 0.0 
0.498363 -0.35512 0.0 
0.156114 0.00766844 0.0 
0.0139901 0.000725779 0.0 
0.166084 -0.252648 0.0 
0.807524 0.0187955 0.0 
0.0140024 -0.00719542 0.0 
1.00072 -0.00325865 0.0 
0 0 0.0 
1.00881 -0.00297124 0.0 
1.00705 -0.00354809 0.0 
1.0034 -0.00363225 0.0 
0 0 0.0 