<VTKFile type="UnstructuredGrid" version="0.1" byte_order="LittleEndian">
  <UnstructuredGrid>
    <Piece NumberOfPoints="12708" NumberOfCells="25256">
      <Points>
        <DataArray type = "Float64" NumberOfComponents="3" format="ascii">
0 0 0.0 
14 0 0.0 
14 8 0.0 
0 8 0.0 
4.16782 4.09801 0.0 
4.01348 3.99897 0.0 
4.00243 4.01052 0.0 
10.0524 4.76669 0.0 
4.09208 3.95602 0.0 
4.27592 4.05022 0.0 
6.65681 6.21946 0.0 
7.83095 0.988247 0.0 
3.91599 4.02965 0.0 
4.04416 3.97874 0.0 
12.5949 1.78564 0.0 
4.01396 4.08707 0.0 
2.69082 5.20185 0.0 
4.69339 4.0593 0.0 
4.24324 4.07611 0.0 
3.95799 3.98472 0.0 
4.08492 3.93693 0.0 
4.24902 3.96859 0.0 
1.37983 3.39745 0.0 
4.97365 4.02617 0.0 
4.30272 4.0995 0.0 
3.99487 4.0255 0.0 
4.83855 3.99181 0.0 
4.65546 4.05038 0.0 
4.36723 4.05555 0.0 
4.02085 4.01707 0.0 
4.05669 3.93986 0.0 
8.28818 5.78715 0.0 
4.24664 4.09542 0.0 
4.09533 4.03459 0.0 
4.00922 3.99881 0.0 
5.57926 3.91085 0.0 
5.01924 4.12854 0.0 
4.01927 3.99345 0.0 
4.02807 4.0484 0.0 
4.11094 4.03801 0.0 
11.624 6.91062 0.0 
4.08146 4.03692 0.0 
4.43297 3.97208 0.0 
3.98196 3.98783 0.0 
2.82936 5.83048 0.0 
4.36023 4.05917 0.0 
4.01706 3.99618 0.0 
4.49853 6.93762 0.0 
11.594 4.9373 0.0 
4.01284 4.02548 0.0 
4.21168 3.96773 0.0 
4.54494 4.06154 0.0 
4.37604 3.94436 0.0 
4.04076 4.01398 0.0 
0.431926 7.09953 0.0 
4.67547 4.07538 0.0 
10.7099 2.37433 0.0 
4.36996 3.83504 0.0 
4.01647 3.99236 0.0 
4.00942 4.01407 0.0 
4.03396 4.05254 0.0 
9.79735 4.60051 0.0 
3.99469 4.00752 0.0 
4.30552 4.0744 0.0 
4.4209 3.97176 0.0 
4.67166 4.04976 0.0 
0.826483 0.532433 0.0 
5.77535 3.92073 0.0 
13.2978 1.9175 0.0 
5.00785 4.00312 0.0 
10.8833 7.73481 0.0 
14 6.11123 0.0 
4.74746 4.05859 0.0 
4.05473 4.02615 0.0 
3.96293 3.99513 0.0 
4.04956 3.95606 0.0 
4.90317 3.99322 0.0 
4.00338 3.991 0.0 
4.25898 4.07924 0.0 
3.99922 3.99464 0.0 
5.03684 4.01469 0.0 
8.87151 3.94963 0.0 
7.36788 5.61649 0.0 
4.8957 4.01964 0.0 
4.02739 3.9813 0.0 
14 5.21618 0.0 
4.01504 4.07552 0.0 
4.81097 3.98921 0.0 
4.80013 4.01216 0.0 
4.09917 3.9306 0.0 
4.14412 4.06545 0.0 
4.20618 4.2548 0.0 
5.00991 4.10716 0.0 
4.02884 4.00253 0.0 
4.22917 3.98359 0.0 
4.24422 7.49665 0.0 
4.76381 4.04145 0.0 
4.35343 3.94951 0.0 
4.00036 4.02872 0.0 
3.05349 4.57182 0.0 
12.6983 7.1386 0.0 
4.8192 3.98955 0.0 
4.42008 3.97215 0.0 
4.84302 3.99188 0.0 
4.08373 4.05666 0.0 
5.00129 3.99352 0.0 
4.5715 3.97754 0.0 
4.27852 0 0.0 
5.04845 4.04311 0.0 
4.29546 4.07179 0.0 
4.74531 3.98723 0.0 
4.0357 4.0241 0.0 
4.13434 4.07811 0.0 
5.13784 4.02471 0.0 
4.03921 4.05963 0.0 
4.00745 4.01155 0.0 
3.97172 3.99094 0.0 
4.35017 3.94589 0.0 
5.51345 3.96996 0.0 
4.551 4.06062 0.0 
9.97102 7.68316 0.0 
13.3691 5.15635 0.0 
4.1741 4.07586 0.0 
5.09541 3.97365 0.0 
5.00565 3.99954 0.0 
3.75062 1.29589 0.0 
14 4.59679 0.0 
4.9481 3.99597 0.0 
4.65795 4.05024 0.0 
3.91267 2.38613 0.0 
4.02873 4.0411 0.0 
4.88146 4.04087 0.0 
4.15916 4.11911 0.0 
4.49136 4.08498 0.0 
13.2243 6.58094 0.0 
4.12124 3.98374 0.0 
4.01505 4.02238 0.0 
5.00749 4.02107 0.0 
12.435 2.56845 0.0 
4.01644 4.04405 0.0 
4.99458 4.03862 0.0 
4.05426 3.97127 0.0 
4.02244 4.02798 0.0 
4.00261 3.99407 0.0 
4.12635 4.07409 0.0 
0 1.4212 0.0 
4.08742 4.0448 0.0 
7.77753 5.82697 0.0 
4.83198 3.98989 0.0 
4.60259 3.93147 0.0 
4.05431 4.04141 0.0 
5.01331 3.98969 0.0 
4.87099 3.88909 0.0 
5.43934 3.81113 0.0 
5.05415 4.0144 0.0 
11.1686 2.59511 0.0 
4.12613 3.92733 0.0 
12.0472 6.07402 0.0 
4.47865 3.97469 0.0 
4.19206 3.91938 0.0 
5.81702 3.84848 0.0 
3.99833 4.00152 0.0 
4.09641 3.95124 0.0 
6.49943 1.9325 0.0 
5.00546 4.00308 0.0 
3.96293 4.03138 0.0 
4.16991 4.04935 0.0 
4.2755 4.03498 0.0 
4.23532 3.95103 0.0 
3.41272 0.490598 0.0 
3.99252 4.00665 0.0 
4.17686 4.06982 0.0 
12.4261 6.96803 0.0 
4.95843 3.9961 0.0 
4.80425 4.03358 0.0 
4.27487 4.14459 0.0 
3.8566 3.70211 0.0 
0.559103 6.5697 0.0 
3.99665 4.0541 0.0 
5.06886 4.12388 0.0 
4.19057 4.05281 0.0 
4.10081 3.94382 0.0 
4.05695 3.98888 0.0 
3.80263 4.16374 0.0 
4.58515 4.03783 0.0 
4.60268 4.05475 0.0 
3.88941 3.91153 0.0 
5.00368 4.02219 0.0 
4.42533 3.97096 0.0 
3.9771 4.03148 0.0 
4.63411 3.9714 0.0 
6.53513 3.85508 0.0 
4.15753 4.10167 0.0 
4.19854 4.04961 0.0 
4.18309 4.12442 0.0 
3.96476 4.03852 0.0 
3.96822 4.02719 0.0 
3.97233 4.04194 0.0 
11.819 3.39524 0.0 
3.99834 4.00086 0.0 
4.21059 3.92477 0.0 
4.11862 4.07496 0.0 
3.92251 4.00785 0.0 
10.0708 7.04667 0.0 
12.4842 4.22703 0.0 
5.01135 7.64329 0.0 
4.27279 4.02121 0.0 
7.04914 5.63678 0.0 
4.62517 3.97997 0.0 
4.00244 3.99332 0.0 
4.0576 3.97622 0.0 
3.75784 4.22486 0.0 
4.23671 3.96696 0.0 
4.00756 4.02287 0.0 
4.00612 4.04547 0.0 
5.0401 4.02083 0.0 
4.98371 4.01321 0.0 
4.34186 4.12909 0.0 
4.5164 4.06362 0.0 
4.14542 4.0341 0.0 
0.707621 6.30756 0.0 
4.28982 4.06866 0.0 
4.49552 3.97684 0.0 
4.10349 3.92287 0.0 
4.15117 4.05781 0.0 
6.25214 4.08628 0.0 
9.70989 7.75915 0.0 
4.07287 3.99811 0.0 
4.02341 4.03456 0.0 
4.12209 3.94586 0.0 
4.52724 7.41561 0.0 
5.05919 4.01855 0.0 
2.15923 7.15628 0.0 
4.22906 3.92121 0.0 
4.06912 3.97273 0.0 
4.60701 3.95862 0.0 
4.03436 3.97963 0.0 
4.01127 4.04737 0.0 
4.00855 4.01615 0.0 
4.13732 3.96487 0.0 
4.90946 3.98223 0.0 
1.24078 0.550265 0.0 
9.10545 7.45594 0.0 
2.38032 0.204862 0.0 
4.70867 4.19468 0.0 
4.11851 4.05833 0.0 
4.25854 3.983 0.0 
4.01517 4.03055 0.0 
3.78368 4.43166 0.0 
3.99882 3.99972 0.0 
7.15285 6.80318 0.0 
5.09271 4.07101 0.0 
4.25668 4.06825 0.0 
4.03203 3.93215 0.0 
3.99908 3.98836 0.0 
8.76112 4.31939 0.0 
6.08325 0.171725 0.0 
9.69603 1.17993 0.0 
5.82879 4.74509 0.0 
4.15142 3.97478 0.0 
4.21507 3.9482 0.0 
5.01138 4.01337 0.0 
4.97222 4.02124 0.0 
4.0225 4.01997 0.0 
4.19735 4.0441 0.0 
4.66409 3.98394 0.0 
4.06316 3.97118 0.0 
4.15574 3.96573 0.0 
4.08678 3.96894 0.0 
11.9473 3.59927 0.0 
5.1327 4.04445 0.0 
4.0274 4.02691 0.0 
4.08293 3.9416 0.0 
4.38309 3.9705 0.0 
4.06447 3.97186 0.0 
4.07513 3.96893 0.0 
12.767 4.72231 0.0 
4.34926 3.9712 0.0 
3.9901 3.98452 0.0 
4.42936 3.97299 0.0 
4.01052 4.00222 0.0 
4.39306 3.97151 0.0 
0 7.54144 0.0 
4.0175 4.04099 0.0 
8.74191 0.517135 0.0 
4.14693 4.07034 0.0 
4.1797 4.07872 0.0 
5.61391 8 0.0 
4.15917 4.06546 0.0 
11.3851 4.05256 0.0 
5.63097 4.57929 0.0 
4.86784 3.99183 0.0 
3.59386 3.60045 0.0 
13.2253 0 0.0 
10.1351 3.82958 0.0 
4.08875 3.9074 0.0 
4.86761 4.05895 0.0 
5.06347 3.99507 0.0 
4.98326 4.00496 0.0 
4.14963 4.05835 0.0 
4.51121 3.97617 0.0 
5.08198 4.04957 0.0 
5.02947 4.00625 0.0 
4.26525 3.96742 0.0 
5.02122 3.98128 0.0 
4.73284 4.0243 0.0 
4.06911 3.9687 0.0 
4.03336 4.02836 0.0 
12.1985 2.08023 0.0 
13.4125 7.46568 0.0 
4.08711 3.98632 0.0 
3.99883 4.01382 0.0 
4.12333 4.03586 0.0 
11.3207 6.86561 0.0 
4.08204 4.06709 0.0 
1.05847 0.743665 0.0 
4.08821 4.12787 0.0 
4.07189 4.04199 0.0 
4.35242 4.05678 0.0 
4.13386 4.04638 0.0 
4.84142 3.97764 0.0 
4.43217 4.07121 0.0 
4.04644 4.19667 0.0 
8.50823 6.62797 0.0 
3.99752 4.02893 0.0 
4.01884 3.99521 0.0 
5.02505 4.01161 0.0 
3.98628 3.99582 0.0 
10.8425 1.88491 0.0 
4.98756 3.96669 0.0 
4.01204 4.00974 0.0 
4.92145 4.015 0.0 
4.07128 4.03374 0.0 
12.5022 4.59686 0.0 
4.79628 4.01849 0.0 
8.1554 7.24604 0.0 
3.00255 3.791 0.0 
4.00774 3.99043 0.0 
3.98163 4.03116 0.0 
1.58634 4.11387 0.0 
4.99823 3.99466 0.0 
3.98648 4.05975 0.0 
4.07644 3.95366 0.0 
4.17688 3.91279 0.0 
9.52987 5.94501 0.0 
5.10311 4.0306 0.0 
4.28205 4.09231 0.0 
5.07095 2.11145 0.0 
3.93422 3.94134 0.0 
4.78959 4.03399 0.0 
4.16712 4.07049 0.0 
3.98027 4.05285 0.0 
4.73099 4.053 0.0 
4.03695 3.96557 0.0 
12.3262 4.10509 0.0 
3.98817 4.01223 0.0 
4.00875 3.98146 0.0 
4.04077 3.99338 0.0 
5.02315 4.00602 0.0 
3.99526 4.00176 0.0 
5.05268 4.00394 0.0 
4.10761 4.0532 0.0 
4.60125 3.98008 0.0 
4.22165 4.0772 0.0 
4.08433 4.05007 0.0 
4.30203 3.92174 0.0 
4.75623 3.98683 0.0 
4.82035 4.03088 0.0 
2.17424 3.47069 0.0 
5.18793 4.05304 0.0 
4.97564 3.98442 0.0 
4.0291 4.02315 0.0 
3.74084 7.4497 0.0 
3.98111 4.00805 0.0 
4.02269 3.99899 0.0 
3.99352 3.97666 0.0 
3.79939 4.03704 0.0 
3.96214 4.17183 0.0 
4.67002 3.84867 0.0 
4.31918 4.076 0.0 
3.98468 3.9804 0.0 
4.27492 4.05293 0.0 
4.10308 3.95678 0.0 
5.00875 4.00222 0.0 
4.54135 4.06071 0.0 
4.0158 4.01968 0.0 
3.30336 6.27526 0.0 
6.47813 4.29034 0.0 
4.26725 3.96783 0.0 
3.98206 3.97395 0.0 
12.9901 3.16776 0.0 
4.3385 4.07438 0.0 
4.35951 4.09483 0.0 
5.00317 4.00256 0.0 
7.99112 3.86093 0.0 
4.00724 4.09538 0.0 
4.00375 4.03912 0.0 
4.28938 4.04669 0.0 
3.99121 4.03339 0.0 
3.99417 4.04189 0.0 
4.12438 3.96136 0.0 
4.0888 3.96815 0.0 
10.838 3.45119 0.0 
4.71883 4.11238 0.0 
3.99997 3.99241 0.0 
4.93823 4.00296 0.0 
4.12591 3.96843 0.0 
4.13136 4.09569 0.0 
4.07435 3.49325 0.0 
3.98918 4.03714 0.0 
9.38164 5.70141 0.0 
4.01059 4.0357 0.0 
4.08555 3.97432 0.0 
4.76006 4.05448 0.0 
4.09975 3.95651 0.0 
4.13306 4.06692 0.0 
4.00056 4.04248 0.0 
1.05155 0.371395 0.0 
5.35539 3.88763 0.0 
3.9896 4.00463 0.0 
4.05451 3.99562 0.0 
3.98613 3.98439 0.0 
4.96843 3.9332 0.0 
11.2037 6.16116 0.0 
4.00273 4.04763 0.0 
4.02428 4.00868 0.0 
4.81281 3.99017 0.0 
2.46283 1.41429 0.0 
4.16113 4.06214 0.0 
4.33225 4.10736 0.0 
3.83065 4.22953 0.0 
12.0282 5.62751 0.0 
3.95129 3.83785 0.0 
3.99375 4.15406 0.0 
3.98643 3.99986 0.0 
4.97536 3.98901 0.0 
4.46779 3.97412 0.0 
3.99581 3.98523 0.0 
13.776 6.53269 0.0 
0.970073 0 0.0 
3.98481 4.00073 0.0 
3.97761 4.0047 0.0 
4.53262 3.97709 0.0 
4.92386 3.99434 0.0 
1.65602 3.56875 0.0 
0.612828 0.378423 0.0 
4.11077 4.06077 0.0 
2.74775 3.98946 0.0 
5.04298 4.00764 0.0 
4.71898 4.53625 0.0 
4.04593 4.03434 0.0 
4.7651 3.98729 0.0 
4.03934 3.97617 0.0 
4.27982 4.05867 0.0 
14 6.70716 0.0 
4.06498 3.96487 0.0 
4.13463 3.95663 0.0 
4.15808 4.06137 0.0 
4.11333 3.95725 0.0 
7.50682 5.84742 0.0 
4.75567 4.0218 0.0 
4.16261 3.96556 0.0 
4.07076 4.03121 0.0 
4.28348 4.08041 0.0 
3.98558 4.00796 0.0 
3.93395 4.04626 0.0 
3.99705 4.04765 0.0 
4.96232 3.98271 0.0 
4.02863 3.97467 0.0 
4.14117 3.95564 0.0 
5.0004 3.98388 0.0 
9.05545 0 0.0 
4.33039 3.9205 0.0 
[...]
<PointData>
  <DataArray type = "Float64" Name="Vitesse" NumberOfComponents="3" format="ascii">
1 0 0.0 
1.00605 0 0.0 
1.00435 0 0.0 
1 0 0.0 
1.02951 0.172808 0.0 
0 0 0.0 
0.0986896 0.12685 0.0 
1.00815 -0.00216536 0.0 
0.623199 -0.0822839 0.0 
0 0 0.0 
1.01116 -0.00176397 0.0 
1.00876 0.000368475 0.0 
0.81236 0.0276986 0.0 
-4.51501e-75 8.05953e-76 0.0 
1.00734 0.000642482 0.0 
0.894829 0.24531 0.0 
0.999079 0.00773874 0.0 
0.108911 -0.00996587 0.0 
0.314982 0.0265473 0.0 
0.719699 -0.113216 0.0 
1.05176 -0.186182 0.0 
1.10666e-09 2.5144e-11 0.0 
0.998951 -0.000723016 0.0 
0.0661453 -0.00993034 0.0 
0.752768 0.047376 0.0 
0.565405 0.287763 0.0 
1.83971e-06 5.18783e-08 0.0 
0.00199325 1.31332e-05 0.0 
0 0 0.0 
-1.16629e-120 -3.88606e-121 0.0 
1.05697 -0.243658 0.0 
1.00951 -0.00178858 0.0 
0.798553 0.078366 0.0 
0 0 0.0 
0 0 0.0 
0.806711 0.0186029 0.0 
0.884614 -0.0501523 0.0 
0 0 0.0 
0.835753 0.35898 0.0 
0 0 0.0 
1.00638 -0.000624976 0.0 
-3.50798e-135 -1.00711e-135 0.0 
0.0118381 0.000606807 0.0 
0.590239 -0.228777 0.0 
1.00249 0.00691068 0.0 
0 0 0.0 
0 0 0.0 
1.00933 0.00241334 0.0 
1.00813 -0.0019185 0.0 
0.475619 0.290749 0.0 
6.58837e-08 2.7984e-09 0.0 
0.0169798 -0.000653463 0.0 
0.43345 0.00426785 0.0 
0 0 0.0 
1.00007 0.000319523 0.0 
0.271652 -0.0193714 0.0 
1.00876 0.000996598 0.0 
1.08435 -0.0355746 0.0 
0 0 0.0 
0 0 0.0 
0.86775 0.34905 0.0 
1.00903 -0.00145286 0.0 
0.235986 0.0941725 0.0 
0.151514 0.00357243 0.0 
0.0117795 0.000740554 0.0 
0.00946811 -0.00110298 0.0 
1.0002 -0.00028637 0.0 
0.765087 0.0135988 0.0 
1.00715 0.000638512 0.0 
0.0248579 -0.00486274 0.0 
1.00637 -0.000158503 0.0 
1.00539 -0.00197685 0.0 
0.140338 -0.0132068 0.0 
0 0 0.0 
0.670722 -0.0828171 0.0 
0.933946 -0.234278 0.0 
0.0116287 0.000367476 0.0 
0.209267 -0.189821 0.0 
0.365454 0.0264828 0.0 
0.192107 -0.294104 0.0 
0.0617209 -0.00934505 0.0 
0.76857 0.00480509 0.0 
1.01053 -0.00269034 0.0 
0.00241942 -0.00039766 0.0 
5.9303e-06 -1.73562e-06 0.0 
1.00562 -0.00362905 0.0 
0.879303 0.271107 0.0 
0.00906125 0.000389215 0.0 
0 0 0.0 
1.06828 -0.167441 0.0 
0.407035 0.0704383 0.0 
1.07274 0.104634 0.0 
0.737005 -0.0497867 0.0 
0 0 0.0 
0 0 0.0 
1.00773 0.0012357 0.0 
0.0217375 -0.00262084 0.0 
0.347817 0.00382562 0.0 
0.608775 0.341044 0.0 
0.991219 0.0110777 0.0 
1.00559 -0.000478362 0.0 
0.00926076 -2.57861e-06 0.0 
0.00664241 0.000209613 0.0 
0.000110237 9.32715e-06 0.0 
0.609773 0.162003 0.0 
0.0641728 0.0140963 0.0 
0.0133827 0.000833446 0.0 
1.0063 0 0.0 
0.196901 -0.0262503 0.0 
0.0946653 0.00552801 0.0 
4.88658e-05 4.11304e-06 0.0 
2.67167e-52 9.62779e-53 0.0 
0.851157 0.168239 0.0 
0.161487 -0.00999394 0.0 
0.911018 0.337532 0.0 
8.49006e-49 7.29527e-49 0.0 
0.634712 -0.136622 0.0 
0.413034 0.00282641 0.0 
0.462442 0.0128814 0.0 
0.0108358 -0.0003412 0.0 
1.00695 -0.000202708 0.0 
1.0074 -0.00179382 0.0 
0.581404 0.0831316 0.0 
0.282248 0.0239969 0.0 
0.0270218 0.00335143 0.0 
1.00576 -0.00358958 0.0 
1.01362 -0.00128682 0.0 
0.00710217 0.000522653 0.0 
0.00135605 -4.64855e-05 0.0 
1.00797 -0.00983912 0.0 
0.731491 0.33171 0.0 
0.093909 -0.0107337 0.0 
1.09604 0.187507 0.0 
0.327232 -0.00993012 0.0 
1.00572 -0.00094009 0.0 
0 0 0.0 
0.243585 0.146339 0.0 
0.0596306 -0.0182056 0.0 
1.00812 0.00123739 0.0 
0.788901 0.365995 0.0 
0.145184 -0.0208514 0.0 
0.259522 -0.0477942 0.0 
0.334121 0.174754 0.0 
2.61442e-17 -2.12141e-17 0.0 
0.801812 0.164523 0.0 
1 0 0.0 
2.21434e-08 3.99056e-09 0.0 
1.0099 -0.00208743 0.0 
0.0115633 0.000145021 0.0 
0.596277 0.012943 0.0 
0.337493 0.11666 0.0 
0.105555 0.0188034 0.0 
0.933331 0.0215614 0.0 
1.01006 0.0199292 0.0 
0.0770333 -0.00646777 0.0 
1.00874 0.00115615 0.0 
1.05258 -0.132249 0.0 
1.00704 -0.0011035 0.0 
9.20955e-05 5.61356e-06 0.0 
1.0188 -0.0781389 0.0 
0.973935 0.0122224 0.0 
0.0448689 -0.0691245 0.0 
0.754005 -0.102222 0.0 
1.01072 0.000681148 0.0 
0.0199046 -0.00648364 0.0 
0.706808 0.0960088 0.0 
0 0 0.0 
1.71434e-252 1.15249e-253 0.0 
0.37223 -0.00620617 0.0 
1.00431 -0.00121764 0.0 
0.283031 0.0457742 0.0 
0.368847 0.0476941 0.0 
1.00587 -0.000560322 0.0 
0.010953 0.000492534 0.0 
0.00636679 -0.000781546 0.0 
1.12595 0.107226 0.0 
0.978667 -0.0565202 0.0 
1.00009 0.000618228 0.0 
0.777584 0.263648 0.0 
0.857811 -0.0506824 0.0 
0 0 0.0 
0.915662 -0.131138 0.0 
0 0 0.0 
0.934632 0.0485529 0.0 
6.81575e-152 2.77248e-153 0.0 
1.14914e-08 -5.4092e-10 0.0 
0.899709 -0.0786916 0.0 
0.0629597 -0.0176202 0.0 
0.0244404 0.000507253 0.0 
0.66153 0.155078 0.0 
0.111566 0.00496365 0.0 
0.950206 0.00463661 0.0 
1.0655 0.18949 0.0 
-1.02731e-69 -3.04575e-71 0.0 
1.10683 0.168572 0.0 
0.724321 0.121418 0.0 
0.673449 0.0993676 0.0 
0.721793 0.156114 0.0 
1.00969 0.001769 0.0 
0.0488646 -0.0931168 0.0 
0.933194 -0.0569666 0.0 
0.86572 0.188046 0.0 
0.792573 -0.0105278 0.0 
1.00718 -0.000593492 0.0 
0.953507 -0.00452207 0.0 
1.00912 0.000488287 0.0 
1.28313e-139 5.21944e-141 0.0 
1.01111 -0.00288824 0.0 
0.0133288 0.000834174 0.0 
0.0850685 -0.108772 0.0 
2.05875e-21 -1.16552e-22 0.0 
0.953661 0.0445309 0.0 
0.0168255 0.000195127 0.0 
0.473729 0.331449 0.0 
0.761447 0.327712 0.0 
0.077469 -0.0140198 0.0 
0.0231079 -0.00472573 0.0 
1.06195 0.0636205 0.0 
0.0171444 -0.00159224 0.0 
0 0 0.0 
1.00011 0.000891317 0.0 
0.0259537 0.00220761 0.0 
1.76904e-54 3.19359e-55 0.0 
1.08657 -0.165109 0.0 
0.0395759 0.0077998 0.0 
0.738985 -0.0108516 0.0 
1.0071 -0.000156165 0.0 
-1.53561e-268 -2.08154e-269 0.0 
0.610469 0.305478 0.0 
0.774947 -0.0838755 0.0 
1.00851 0.00122374 0.0 
0.0871206 -0.00943175 0.0 
1.00202 0.00172129 0.0 
0.946702 -0.0529506 0.0 
0.0335558 -0.00352547 0.0 
0.253336 0.00914759 0.0 
2.38801e-43 -7.09523e-44 0.0 
0.788613 0.341518 0.0 
0.111308 0.0932791 0.0 
0.120718 -0.0032765 0.0 
0.117767 0.00562842 0.0 
1.00049 -0.000467056 0.0 
1.00758 -0.000382823 0.0 
1.00202 -0.000377207 0.0 
1.08962 -0.020758 0.0 
0.320048 0.0604012 0.0 
1.17904e-173 1.15032e-174 0.0 
0.603419 0.336622 0.0 
0.983948 0.0467331 0.0 
0.0488536 -0.117175 0.0 
1.00974 -0.00105971 0.0 
0.445215 -0.0381318 0.0 
0.0468068 0.00206411 0.0 
1.00991 -0.259419 0.0 
0.47955 -0.446534 0.0 
1.00936 -0.00281612 0.0 
1.00868 -6.42567e-05 0.0 
1.00815 0.000468401 0.0 
1.01629 -0.0102281 0.0 
-4.04648e-221 3.41074e-222 0.0 
0.462806 -0.0137587 0.0 
0.0378435 -0.0149592 0.0 
0.0443001 -0.00690456 0.0 
-2.34821e-78 -8.46223e-79 0.0 
0 0 0.0 
1.16118e-25 1.40493e-26 0.0 
0.167511 -0.0288995 0.0 
0.0685731 -0.00123664 0.0 
0.116276 -0.0142974 0.0 
1.01147 0.000524352 0.0 
0.255448 -0.0228065 0.0 
0.0896098 0.0559148 0.0 
1.01577 -0.180966 0.0 
0.013409 0.000282731 0.0 
0.121403 -0.0258509 0.0 
0.188036 -0.0275753 0.0 
1.00857 -0.00289462 0.0 
2.18057e-17 1.04357e-18 0.0 
0.594908 -0.347384 0.0 
2.4354e-06 1.93075e-07 0.0 
0 0 0.0 
0.000136252 1.02883e-05 0.0 
1 0 0.0 
0.767283 0.372178 0.0 
1.00821 0.000201825 0.0 
0.56293 0.0965026 0.0 
0.63758 0.0896226 0.0 
1.00947 0 0.0 
0.306065 0.0421535 0.0 
0.823031 0.00105135 0.0 
1.01734 -0.0142496 0.0 
0.0088769 0.00037189 0.0 
0.981333 -0.0254691 0.0 
1.00635 0 0.0 
0.936899 0.000494788 0.0 
1.07734 -0.174404 0.0 
0.222691 -0.0210417 0.0 
0.121238 0.0111022 0.0 
0.00213457 -0.000399967 0.0 
0.0735122 0.00984425 0.0 
5.45728e-14 3.61069e-15 0.0 
0.260046 -0.0288007 0.0 
0.0531527 -0.00206407 0.0 
0.0167603 6.50447e-05 0.0 
0.180476 0.0236775 0.0 
-7.74003e-72 5.14357e-73 0.0 
0.249084 -0.0386133 0.0 
6.52447e-31 2.39107e-31 0.0 
1.00773 0.000914215 0.0 
1.00499 -0.000377778 0.0 
0 0 0.0 
0.311249 0.265253 0.0 
0 0 0.0 
1.0066 -0.000662647 0.0 
0.900866 0.251965 0.0 
1.00034 -0.000525691 0.0 
1.02975 0.213679 0.0 
0.0653577 0.0190056 0.0 
7.7958e-103 2.96859e-104 0.0 
0 0 0.0 
0.133433 0.00607856 0.0 
0.073094 -0.00232797 0.0 
0.997163 0.148813 0.0 
1.00856 -0.00106424 0.0 
0.607071 0.315298 0.0 
0 0 0.0 
0.0472155 -0.0090144 0.0 
0.46038 -0.192812 0.0 
1.00832 0.000820712 0.0 
0.30542 0.0204217 0.0 
0 0 0.0 
0.00115995 -0.00013709 0.0 
1.06883e-60 3.12711e-61 0.0 
1.01201 -0.00152286 0.0 
-4.71866e-154 4.96255e-155 0.0 
1.00838 -0.000613757 0.0 
0.987449 -0.00373624 0.0 
0 0 0.0 
0.646481 0.180725 0.0 
0.998267 0.000819599 0.0 
0.0506723 0.00867367 0.0 
0.788017 0.218316 0.0 
0.808449 -0.14187 0.0 
1.07386 -0.0966218 0.0 
1.00859 -0.00128545 0.0 
0.156637 -0.0161982 0.0 
0.643633 0.0456295 0.0 
1.01266 -0.00284783 0.0 
0.85318 -0.117796 0.0 
2.54452e-09 -1.84682e-10 0.0 
0.443039 0.0641217 0.0 
0.759699 0.197812 0.0 
0.080427 -0.00812829 0.0 
0.785796 -0.231229 0.0 
0.88036 -0.00629186 0.0 
0.433275 0.110532 0.0 
0.600655 -0.359263 0.0 
0 0 0.0 
0.045655 -0.00318075 0.0 
0.164365 -0.098613 0.0 
0.0816856 0.00304488 0.0 
0.189507 0.0402114 0.0 
0.000140697 1.17285e-05 0.0 
0.416715 0.0400838 0.0 
0.315856 0.0748015 0.0 
0.851172 -0.0229166 0.0 
0.00544073 0.000253913 0.0 
0.00387106 -0.000440932 0.0 
0.996733 -0.00188427 0.0 
0.343807 -0.0257567 0.0 
0.129478 0.0078039 0.0 
1.32231e-59 4.76517e-60 0.0 
1.00634 0.00157608 0.0 
0.503798 0.00920452 0.0 
0 0 0.0 
0.709217 -0.378557 0.0 
0.908803 0.0106226 0.0 
0.941249 0.125161 0.0 
1.05648 0.00325794 0.0 
0.180339 0.0035148 0.0 
0.657148 -0.286605 0.0 
0 0 0.0 
0.529084 -0.0576175 0.0 
0.0279708 -0.00242471 0.0 
0.00527908 -6.78182e-05 0.0 
3.21854e-12 1.259e-12 0.0 
1.00544 0.0060625 0.0 
1.00963 -0.00770841 0.0 
0.0092997 0.000312024 0.0 
0.716062 -0.267806 0.0 
1.00676 0.00127644 0.0 
0.129704 0.00272198 0.0 
0.568194 0.0158255 0.0 
0.0148928 -0.00721622 0.0 
0.914135 0.00371579 0.0 
0.897151 0.222836 0.0 
0.71594 0.336962 0.0 
1.08959e-238 7.32492e-240 0.0 
0.647483 0.256154 0.0 
0.711637 0.270909 0.0 
0.271066 -0.019923 0.0 
0.14268 -0.0149915 0.0 
1.01101 0.000988748 0.0 
0.736735 -0.0347487 0.0 
0.275609 -0.347564 0.0 
1.07395e-55 1.18152e-57 0.0 
0.0257837 -0.00266599 0.0 
1.05742 0.216808 0.0 
1.01745 -0.043909 0.0 
0.676596 0.241413 0.0 
1.00886 -0.00144777 0.0 
0.708724 0.375394 0.0 
1.8302e-45 -2.58364e-46 0.0 
0.113362 -0.0112937 0.0 
0.557669 -0.0641225 0.0 
0.539694 0.100285 0.0 
0.727779 0.308121 0.0 
1.00035 -0.000265755 0.0 
0.904247 0.0257579 0.0 
0.344813 -0.0250287 0.0 
6.53851e-283 5.49354e-284 0.0 
0.608191 -0.292723 0.0 
0.618433 0.0274699 0.0 
1.00746 -0.0010676 0.0 
0.762147 0.305082 0.0 
0 0 0.0 
7.17476e-06 1.3285e-06 0.0 
1.00188 -0.00275989 0.0 
0.165763 0.022551 0.0 
0.840989 0.0445324 0.0 
0.951875 0.0617491 0.0 
1.00764 -0.00141611 0.0 
0.960862 -0.110988 0.0 
0.943431 0.155417 0.0 
0.423983 -0.124369 0.0 
0.0856294 0.00477223 0.0 
0.0049015 0.000346272 0.0 
0.579638 -0.434524 0.0 
1.00524 -0.00130223 0.0 
1.00031 0 0.0 
0.448288 -0.101077 0.0 
0.540652 -0.0345727 0.0 
4.76726e-05 1.77752e-06 0.0 
0.0110978 0.000511285 0.0 
0.998263 -0.000781226 0.0 
1.00011 -0.000157416 0.0 
0.496107 0.106344 0.0 
0.991884 0.000623632 0.0 
0.0663381 -0.00139265 0.0 
1.05135 0.00218272 0.0 
0.0787606 0.0292548 0.0 
0.00554265 0.000790967 0.0 
0.149322 -0.0381905 0.0 
0 0 0.0 
1.00491 -0.00129155 0.0 
0.473508 -0.0838295 0.0 
0.399593 -0.0286533 0.0 
0.152618 0.017046 0.0 
0.460996 -0.0420873 0.0 
1.01022 -0.002246 0.0 
-2.56924e-76 1.70737e-77 0.0 
0.0674785 -0.0019483 0.0 
0 0 0.0 
0.343246 0.0194512 0.0 
0.439252 0.0244706 0.0 
0.799598 0.0702796 0.0 
0.748759 0.277295 0.0 
0.137816 0.00732043 0.0 
0.478895 -0.159521 0.0 
0.410936 -0.0271404 0.0 
0.150477 0.0177699 0.0 
1.00796 0 0.0 
0.83981 -0.0169668 0.0 
0.935982 -0.0989161 0.0 
0.0330739 -0.0117976 0.0 
0.491677 -0.0487101 0.0 
0.769007 0.364478 0.0 
0.747185 0.0632975 0.0 
0.579352 -0.0613907 0.0 
0.240225 0.00966969 0.0 
0.863505 0.354088 0.0 
0.493058 -0.172118 0.0 
0.81453 0.356008 0.0 
0.257778 -0.0463606 0.0 
1.0094 -0.00175525 0.0 
0.943296 -0.334653 0.0 
1.04213 0.0727873 0.0 
0.746363 -0.0901511 0.0 
0.00497573 0.000689357 0.0 
0.782167 0.135087 0.0 
1.2832e-270 8.62651e-272 0.0 
1.04971 0.102633 0.0 
0 0 0.0 
0.0142017 -0.000722874 0.0 
0 0 0.0 
0.41562 -0.00487211 0.0 
1.99595e-28 2.58132e-28 0.0 
0.045872 -0.00978718 0.0 
0.407279 -0.00321232 0.0 
0.81006 0.127127 0.0 
0.197593 0.178535 0.0 
0.455402 -0.0477134 0.0 
1.0793 -0.201556 0.0 
0.291112 0.0127806 0.0 
0.119749 -0.00704109 0.0 
1.00753 -0.00116018 0.0 
3.27486e-117 1.33213e-118 0.0 
6.35089e-103 4.4628e-105 0.0 
0.370959 -0.256265 0.0 
0 0 0.0 
1.2014e-07 -9.74623e-08 0.0 
0.697601 -0.449085 0.0 
0.767853 0.0874396 0.0 
0.893876 0.00439632 0.0 
0.00898279 0.000401035 0.0 
3.09733e-07 -3.6359e-08 0.0 
8.47584e-30 3.54457e-31 0.0 
0.946083 0.181666 0.0 
0.772144 -0.290274 0.0 
0.937095 -0.0160748 0.0 
1.00767 -0.00203367 0.0 
1.00764 -0.000215694 0.0 
0.0968371 -0.0898395 0.0 
0.171477 0.0126636 0.0 
0.12468 0.0176204 0.0 
0.686431 -0.0463853 0.0 
1.0107 5.28708e-05 0.0 
1.01196 -0.00181098 0.0 
0.451167 -0.00465722 0.0 
0.591084 0.0805247 0.0 
0.0429493 -0.0166642 0.0 
0.985552 -0.0294015 0.0 
8.11239e-05 -3.04626e-07 0.0 
-5.38039e-134 -3.53446e-135 0.0 
1.00254 -0.00412692 0.0 
0.892088 -0.30127 0.0 
0.928579 0.000364871 0.0 
0.497162 -0.353257 0.0 
0 0 0.0 
1.0058 -0.00131925 0.0 
0.862139 0.258497 0.0 
0.190749 -0.0662666 0.0 
0.00201103 -0.000434186 0.0 
1.00977 0.00155602 0.0 
0.00621974 0.000368114 0.0 
0.00358693 0.000396179 0.0 
0.621128 0.370622 0.0 
0.439358 -0.0102646 0.0 
0.350888 -0.142175 0.0 
0.966169 0.305153 0.0 
3.82573e-07 -3.06123e-08 0.0 
0 0 0.0 
6.32284e-223 -8.10879e-223 0.0 
1.02432 0.0586937 0.0 
0.000381053 2.43682e-05 0.0 
2.08064e-11 2.69152e-11 0.0 
0.279765 -0.0323134 0.0 
1.05477e-07 1.4803e-08 0.0 
0.817934 0.364085 0.0 
0.918129 0.0330849 0.0 
0.185869 0.107754 0.0 
1.00045 0.00516942 0.0 
1.75647e-07 2.819e-08 0.0 
0 0 0.0 
0.918317 0.282955 0.0 
8.10992e-28 1.04884e-27 0.0 
0 0 0.0 
0.000786664 -3.28866e-05 0.0 
1.01218 -0.294181 0.0 
0.0121159 0.000133461 0.0 
0.323416 0.165608 0.0 
0.0139297 0.000958161 0.0 
0.175756 -0.0171509 0.0 
1.00835 -0.00221872 0.0 
0.999521 -0.000236255 0.0 
0.126114 0.0612776 0.0 
1.0057 -0.000700059 0.0 
0 0 0.0 
1.00341 -0.00366405 0.0 
0.111958 0.036158 0.0 
1.0069 0.256687 0.0 
1.90851e-15 9.29468e-16 0.0 
0.245913 -0.007859 0.0 
0.040726 -0.0162123 0.0 
1.009 -0.00144541 0.0 
1.01042 -0.00152082 0.0 
3.16328e-08 4.06602e-09 0.0 
0.00660324 0.000226502 0.0 
0.609393 -0.464349 0.0 
0.170638 0.00102921 0.0 
0.727366 0.191238 0.0 
1.00626 0 0.0 
0.678258 0.19912 0.0 
0.7213 0.231052 0.0 
0.500882 0.15193 0.0 
1.00864 -0.00127654 0.0 
0 0 0.0 
3.53961e-243 2.44436e-244 0.0 
1.00891 -0.000774358 0.0 
1.03634 -0.272849 0.0 
0 0 0.0 
1.13856e-05 1.90722e-06 0.0 
4.63051e-32 3.29539e-34 0.0 
0.00583475 1.98241e-05 0.0 
0.593498 -0.0733273 0.0 
1.00441 -0.00208997 0.0 
0.0105134 -0.000591068 0.0 
1.00024 0.00139704 0.0 
0.00722321 0.000524288 0.0 
0.085278 -0.0222569 0.0 
0.0092668 -0.0068945 0.0 
1e-307 1e-307 0.0 
1.09298 -0.0961395 0.0 
1.0081 -0.0448951 0.0 
0.555055 -0.134645 0.0 
5.37524e-06 -4.48327e-07 0.0 
0.658263 0.0572426 0.0 
1.00786 0.000718569 0.0 
0.199487 0.023926 0.0 
0.0122024 -0.00629608 0.0 
0.013152 -0.000693774 0.0 
0.00217741 -0.000215556 0.0 
0 0 0.0 
0.0068349 0.00060233 0.0 
0.879542 -0.0733711 0.0 
0.943632 -0.359671 0.0 
0.145027 -0.0822177 0.0 
0.692882 -0.289518 0.0 
0 0 0.0 
1.01047 -0.00195076 0.0 
0.0484953 -0.00343606 0.0 
0 0 0.0 
0.128634 0.0239131 0.0 
1 0 0.0 
1.00976 -0.00201494 0.0 
0.574507 0.222776 0.0 
0.650264 0.276699 0.0 
0.00293433 -0.000320498 0.0 
0.921722 -0.303159 0.0 
0.946234 -0.00440628 0.0 
1.00003 0.000515572 0.0 
0.745568 -0.428488 0.0 
0.951515 0.283706 0.0 
1.00191 -0.00290975 0.0 
0.679778 0.0140687 0.0 
0.0161118 0.000129868 0.0 
0.117604 -0.0214569 0.0 
0.819354 -0.244843 0.0 
0.905367 0.331974 0.0 
0.161082 0.167792 0.0 
0 0 0.0 
0.549714 -0.0152955 0.0 
0.0118812 -0.000927106 0.0 
0.033119 -0.0150294 0.0 
1.01735 -0.111259 0.0 
0.398381 -0.148094 0.0 
0.802213 -0.352251 0.0 
0.945251 -0.00189153 0.0 
0.999493 0.00263457 0.0 
0 0 0.0 
1.01052 0.00193632 0.0 
0.454602 0.160268 0.0 
0.136375 -0.0124229 0.0 
1.00902 0.00896169 0.0 
0.645353 -0.00941366 0.0 
0.00789787 -0.00107161 0.0 
1.00704 0.000176869 0.0 
0.00302936 -0.000244071 0.0 
1.00596 0.15319 0.0 
0.0280271 -0.000815826 0.0 
1.39603e-67 -3.05626e-69 0.0 
1.00842 0.00107222 0.0 
0.0494371 -0.00527993 0.0 
0 0 0.0 
0.27511 -0.0238489 0.0 
1.00841 0.000235971 0.0 
1.00051 0.000588954 0.0 
3.50827e-06 3.15236e-07 0.0 
0.682526 -0.107258 0.0 
1.0103 0.00145675 0.0 
0.139825 0.00515678 0.0 
0.996521 -0.00571838 0.0 
0.999258 -0.00321479 0.0 
0 0 0.0 
1.01294 -0.00194168 0.0 
0.043118 0.0103298 0.0 
0.655638 0.115522 0.0 
0.968726 -0.341698 0.0 
1.00977 0.00105514 0.0 
0.876762 -0.0128197 0.0 
0.87205 -0.0450765 0.0 
0.95283 0.00191143 0.0 
1.05233 0.0011307 0.0 
0.849023 0.331717 0.0 
1.0013 -0.143987 0.0 
0.133515 -0.0767379 0.0 
1.00859 0.00105093 0.0 
0.14979 0.0265216 0.0 
0.0647209 0.0135624 0.0 
1.01059 0.270844 0.0 
0.125077 0.0191625 0.0 
0.561188 -0.208263 0.0 
8.08632e-29 -4.78402e-30 0.0 
0.889832 -0.0276278 0.0 
0.806039 0.165304 0.0 
1.01154 -0.00213437 0.0 
0.842875 0.345708 0.0 
0.841001 0.322575 0.0 
0.84645 0.296952 0.0 
0.389192 -0.0247825 0.0 
0.289816 0.00684771 0.0 
1.00001 -0.000533313 0.0 
0.536815 -0.0621436 0.0 
0.881373 -0.0714434 0.0 
0.219607 -0.0418698 0.0 
1.01305 -0.131663 0.0 
0.616066 -0.11694 0.0 
1.00471 0 0.0 
0.0147232 0.000434546 0.0 
0.564058 0.0549723 0.0 
9.77381e-52 6.5789e-53 0.0 
1.91539e-26 -7.12732e-28 0.0 
0.024993 0.0067434 0.0 
0.157768 -0.251931 0.0 
0.244718 0.0443773 0.0 
1.00766 -0.000633352 0.0 
0.0177391 0.000901712 0.0 
0.284462 0.00933344 0.0 
2.96765e-12 3.1247e-12 0.0 
0 0 0.0 
0.242934 0.0263484 0.0 
0.00766589 -0.000703123 0.0 
0 0 0.0 
0.999969 0.00202348 0.0 
1.00001 0.00108401 0.0 
0.662377 0.00749344 0.0 
0.432423 0.0768981 0.0 
0.840994 0.341645 0.0 
0.0471633 -0.0118226 0.0 
0.939616 0.0311654 0.0 
0.463575 0.064874 0.0 
0.353516 0.0905439 0.0 
0.35022 0.240317 0.0 
0.735347 0.301945 0.0 
0.298625 -0.0259223 0.0 
0.00155497 -0.000206171 0.0 
0.619924 0.0108831 0.0 
1.00055 0.00243726 0.0 
0.00226331 -0.000148554 0.0 
1.13035e-23 -1.10485e-24 0.0 
0.594163 -0.0277976 0.0 
9.71656e-47 8.29388e-48 0.0 
-1.71887e-75 1.14226e-76 0.0 
0.0753267 0.0155581 0.0 
0.859315 -0.402586 0.0 
0.226226 0.0237994 0.0 
1.0074 0.000203914 0.0 
0.882818 0.341603 0.0 
1.00107 0.00246769 0.0 
0.964075 -0.192011 0.0 
0.952523 -0.0459619 0.0 
0.136233 0.00427559 0.0 
0.837333 0.198472 0.0 
0.677954 -0.367243 0.0 
1.00492 0.00113457 0.0 
0.607065 -0.0396577 0.0 
0.593546 -0.143104 0.0 
0.973778 -0.014282 0.0 
9.98556e-10 4.85342e-11 0.0 
0.999545 0.00105676 0.0 
1 0 0.0 
0.841433 0.0233533 0.0 
0.128898 -0.00883878 0.0 
0.0247667 0.000137853 0.0 
1.00053 0.00426073 0.0 
0.339619 -0.244072 0.0 
0.0124892 0.000243429 0.0 
0.999954 -0.000492856 0.0 
0.0665928 0.00384613 0.0 
0.999972 -0.00306008 0.0 
1.01062 0.00178168 0.0 
0.0706258 -0.0100297 0.0 
0.112543 0.00191673 0.0 
0.311465 -0.262743 0.0 
0.229909 0.0214166 0.0 
1.00854 0.00120258 0.0 
1.00498 -0.00287075 0.0 
1.00936 0.000165852 0.0 
0.00168734 -0.000218123 0.0 
0.470235 -0.0258893 0.0 
1.00764 -0.00179152 0.0 
0.0197819 0.000629141 0.0 
0.0376072 -0.00862042 0.0 
0.350793 0.0508788 0.0 
0.0398478 0.00450621 0.0 
1.06264 0.135395 0.0 
0.00627142 0.000317361 0.0 
0.8896 0.00954084 0.0 
0.070402 0.00606735 0.0 
1.00002 0.000494993 0.0 
1.01663 0.116501 0.0 
3.01715e-16 8.33455e-18 0.0 
0.00169943 -0.000418881 0.0 
0.00902811 -0.00288578 0.0 
1.00774 -0.000819704 0.0 
0.0201983 0.000286429 0.0 
1.0098 -0.00185601 0.0 
0.526887 0.0957973 0.0 
7.1137e-199 -7.75593e-199 0.0 
0.982323 0.175521 0.0 
4.17691e-53 1.22147e-53 0.0 
3.07262e-13 -1.47318e-14 0.0 
0.984941 -0.0308445 0.0 
1.00563 -0.000270086 0.0 
1.0056 0.00750365 0.0 
1.00715 -0.000320981 0.0 
0.509906 0.236654 0.0 
0.998843 -0.000126779 0.0 
0.833946 -0.0103109 0.0 
0.20448 -0.00150475 0.0 
0.217753 -0.0186274 0.0 
1.01935 0.0101003 0.0 
1.01119 -0.00182244 0.0 
0.958182 -0.16732 0.0 
0.888459 0.346076 0.0 
0.259766 0.0110905 0.0 
1.0088 0.000329324 0.0 
1.01096 -0.00138059 0.0 
1.00704 0.000536836 0.0 
0.62137 -0.0377344 0.0 
0 0 0.0 