<VTKFile type="UnstructuredGrid" version="0.1" byte_order="LittleEndian">
  <UnstructuredGrid>
    <Piece NumberOfPoints="12685" NumberOfCells="25209">
      <Points>
        <DataArray type = "Float64" NumberOfComponents="3" format="ascii">
0 0 0.0 
14 0 0.0 
14 8 0.0 
0 8 0.0 
4.16782 4.09801 0.0 
4.01348 3.99897 0.0 
4.03932 3.97619 0.0 
4.86622 4.02261 0.0 
4.09208 3.95602 0.0 
4.27592 4.05022 0.0 
4.16712 4.07049 0.0 
4.12884 3.96829 0.0 
4.01517 4.08782 0.0 
11.0913 3.68436 0.0 
12.5949 1.78564 0.0 
4.30612 3.92118 0.0 
4.09917 3.9306 0.0 
3.75647 4.2253 0.0 
4.02884 4.00253 0.0 
4.28346 4.0804 0.0 
4.08492 3.93693 0.0 
4.80464 4.03229 0.0 
4.01644 4.04405 0.0 
4.97365 4.02617 0.0 
5.13784 4.02471 0.0 
4.2728 4.02121 0.0 
4.0064 4.00089 0.0 
3.99833 4.00152 0.0 
4.36723 4.05555 0.0 
4.0028 4.00914 0.0 
5.05268 4.00394 0.0 
8.28818 5.78715 0.0 
4.00945 4.01408 0.0 
4.09533 4.03459 0.0 
4.00922 3.99881 0.0 
4.87889 4.0214 0.0 
4.85132 4.02645 0.0 
4.01927 3.99345 0.0 
4.02807 4.0484 0.0 
4.11094 4.03801 0.0 
0 7.54144 0.0 
4.37665 3.94429 0.0 
3.98196 3.98783 0.0 
4.71923 4.53636 0.0 
4.36023 4.05917 0.0 
4.01706 3.99618 0.0 
8.74191 0.517135 0.0 
11.594 4.9373 0.0 
3.99398 3.93781 0.0 
12.3324 4.10775 0.0 
5.09552 3.97362 0.0 
3.91571 3.82336 0.0 
4.87803 3.99335 0.0 
11.3207 6.86561 0.0 
4.15922 4.11918 0.0 
4.00778 4.09572 0.0 
4.01647 3.99236 0.0 
4.54137 4.06073 0.0 
4.03396 4.05254 0.0 
4.6367 3.97183 0.0 
4.36269 4.07144 0.0 
4.2678 4.0699 0.0 
12.1985 2.08023 0.0 
5.02928 3.97464 0.0 
4.81247 3.98986 0.0 
4.07977 4.03854 0.0 
5.00749 4.02107 0.0 
5.00785 4.00312 0.0 
10.8833 7.73481 0.0 
14 6.11123 0.0 
4.05473 4.02615 0.0 
3.96293 3.99513 0.0 
4.04956 3.95606 0.0 
4.05425 3.97127 0.0 
4.12591 3.96843 0.0 
4.0543 3.97496 0.0 
3.99922 3.99464 0.0 
5.03684 4.01469 0.0 
4.12341 4.03587 0.0 
4.00245 3.99332 0.0 
4.90219 3.96437 0.0 
14 5.21618 0.0 
4.43566 3.97184 0.0 
3.97937 0.292323 0.0 
4.80013 4.01216 0.0 
4.06931 3.99449 0.0 
4.03168 3.9785 0.0 
4.04587 3.97363 0.0 
5.00991 4.10716 0.0 
7.00806 2.71181 0.0 
4.22917 3.98359 0.0 
4.24422 7.49665 0.0 
2.17034 3.47272 0.0 
4.35343 3.94951 0.0 
3.93351 4.04561 0.0 
3.05349 4.57182 0.0 
4.27862 4.07055 0.0 
4.16335 3.93925 0.0 
5.00128 3.99352 0.0 
5.00546 4.00308 0.0 
4.08373 4.05666 0.0 
4.08018 3.97291 0.0 
4.49159 4.0853 0.0 
4.27852 0 0.0 
5.04845 4.04311 0.0 
4.08204 4.06709 0.0 
4.92404 3.99436 0.0 
4.2755 4.03498 0.0 
4.13434 4.07811 0.0 
3.9513 3.83785 0.0 
4.03921 4.05963 0.0 
1.05847 0.743665 0.0 
5.50713 3.96917 0.0 
4.35017 3.94589 0.0 
3.80201 4.16479 0.0 
8.50823 6.62797 0.0 
3.98648 4.05975 0.0 
4.01248 3.98458 0.0 
4.1741 4.07586 0.0 
3.88944 3.91156 0.0 
4.02269 3.99899 0.0 
3.75062 1.29589 0.0 
7.50681 5.8474 0.0 
5.63098 4.57931 0.0 
4.44859 2.84537 0.0 
3.91267 2.38613 0.0 
4.02873 4.0411 0.0 
4.88146 4.04087 0.0 
11.8191 3.39515 0.0 
4.12177 4.05546 0.0 
4.04532 4.03302 0.0 
4.12124 3.98374 0.0 
0.612828 0.378423 0.0 
4.27566 3.96716 0.0 
4.86199 3.9921 0.0 
4.42418 4.06724 0.0 
4.99458 4.03862 0.0 
4.51609 4.06368 0.0 
4.02244 4.02798 0.0 
4.71806 4.04362 0.0 
4.12635 4.07409 0.0 
0 1.4212 0.0 
4.39921 3.9707 0.0 
4.10349 3.92287 0.0 
4.82013 4.03085 0.0 
4.58058 4.05817 0.0 
4.378 3.97061 0.0 
5.01331 3.98969 0.0 
4.52849 3.97604 0.0 
4.07513 3.96893 0.0 
5.05415 4.0144 0.0 
3.74084 7.4497 0.0 
4.12613 3.92733 0.0 
4.0888 3.96815 0.0 
4.08875 3.9074 0.0 
4.19206 3.91938 0.0 
5.03482 3.97988 0.0 
3.30336 6.27526 0.0 
4.09641 3.95124 0.0 
4.64273 4.05262 0.0 
4.01128 4.04737 0.0 
3.96293 4.03138 0.0 
4.16991 4.04935 0.0 
1.15866 3.60914 0.0 
4.23532 3.95103 0.0 
4.64358 3.98248 0.0 
3.99252 4.00665 0.0 
4.17686 4.06982 0.0 
5.09271 4.07101 0.0 
4.22718 3.96694 0.0 
4.34186 4.12909 0.0 
4.98974 4.00417 0.0 
4.92481 3.99519 0.0 
4.00883 3.98758 0.0 
3.99665 4.0541 0.0 
5.06886 4.12388 0.0 
4.19057 4.05281 0.0 
4.10081 3.94382 0.0 
4.05695 3.98888 0.0 
4.15142 3.97478 0.0 
7.41405 4.02348 0.0 
4.03722 3.97933 0.0 
5.00368 4.02219 0.0 
10.8425 1.88491 0.0 
3.9771 4.03148 0.0 
4.61649 3.98009 0.0 
4.9737 4.90843 0.0 
4.15753 4.10167 0.0 
9.38165 5.70141 0.0 
4.18309 4.12442 0.0 
3.96476 4.03852 0.0 
3.96822 4.02719 0.0 
3.97233 4.04194 0.0 
4.21194 3.92469 0.0 
4.70315 4.07107 0.0 
4.29851 3.96871 0.0 
6.4779 4.29116 0.0 
3.92251 4.00785 0.0 
3.99526 4.00176 0.0 
4.28217 4.086 0.0 
4.76003 4.05448 0.0 
13.776 6.53269 0.0 
4.90937 3.98224 0.0 
4.10663 4.0301 0.0 
4.14557 4.03412 0.0 
4.00554 4.00386 0.0 
4.30505 4.06984 0.0 
13.2653 2.91651 0.0 
4.00756 4.02287 0.0 
4.00612 4.04547 0.0 
5.0401 4.02083 0.0 
4.98371 4.01321 0.0 
4.9611 4.00896 0.0 
5.61358 8 0.0 
4.35378 3.97064 0.0 
4.71395 3.96274 0.0 
4.15917 4.06546 0.0 
4.05025 4.03552 0.0 
4.7329 4.02428 0.0 
4.11631 4.01871 0.0 
6.25214 4.08628 0.0 
9.70989 7.75915 0.0 
4.23039 3.92106 0.0 
4.02341 4.03456 0.0 
4.12209 3.94586 0.0 
4.52724 7.41561 0.0 
5.05919 4.01855 0.0 
2.15923 7.15628 0.0 
4.22236 4.07702 0.0 
4.25429 3.96667 0.0 
4.60701 3.95862 0.0 
4.72085 4.06014 0.0 
11.2037 6.16116 0.0 
4.44161 4.0668 0.0 
4.13732 3.96487 0.0 
4.0175 4.04099 0.0 
1.24078 0.550265 0.0 
9.10545 7.45594 0.0 
2.38032 0.204862 0.0 
11.5927 5.36717 0.0 
4.11851 4.05833 0.0 
4.25854 3.983 0.0 
4.01517 4.03055 0.0 
5.00875 4.00222 0.0 
3.99882 3.99972 0.0 
7.15285 6.80318 0.0 
4.06911 3.9687 0.0 
4.00324 3.99345 0.0 
4.03203 3.93215 0.0 
3.99908 3.98836 0.0 
8.76112 4.31939 0.0 
8.90662 4.1841 0.0 
4.08858 4.12811 0.0 
5.82879 4.74509 0.0 
3.96217 4.17219 0.0 
4.21507 3.9482 0.0 
4.35844 3.97049 0.0 
4.97222 4.02124 0.0 
4.06478 3.96921 0.0 
4.19735 4.0441 0.0 
4.25291 4.06772 0.0 
3.0025 3.79111 0.0 
4.08678 3.96894 0.0 
11.9473 3.59927 0.0 
5.1327 4.04445 0.0 
3.99631 4.00733 0.0 
4.08293 3.9416 0.0 
4.7194 4.1123 0.0 
4.58872 3.97927 0.0 
4.12438 3.96136 0.0 
5.02315 4.00602 0.0 
4.32535 4.0761 0.0 
3.9901 3.98452 0.0 
4.20276 3.96612 0.0 
12.0282 5.62751 0.0 
4.5324 3.9769 0.0 
4.45264 3.97321 0.0 
4.96845 3.9332 0.0 
4.10761 4.0532 0.0 
4.1797 4.07872 0.0 
4.06058 4.04046 0.0 
4.62107 4.05305 0.0 
3.97754 3.95017 0.0 
3.99387 4.15424 0.0 
3.99697 4.00162 0.0 
3.59386 3.60045 0.0 
13.2253 0 0.0 
10.1351 3.82958 0.0 
4.22132 4.77411 0.0 
13.391 6.29277 0.0 
5.06347 3.99507 0.0 
4.03691 3.96558 0.0 
4.08433 4.05007 0.0 
4.22704 4.0666 0.0 
5.08198 4.04957 0.0 
5.02947 4.00625 0.0 
3.79996 4.03799 0.0 
5.02122 3.98128 0.0 
4.86802 4.03265 0.0 
4.86929 3.99188 0.0 
4.73083 4.053 0.0 
13.4125 7.46568 0.0 
4.08711 3.98632 0.0 
3.99883 4.01382 0.0 
4.04912 3.97682 0.0 
4.00595 3.99585 0.0 
3.87802 3.99582 0.0 
4.00017 4.00748 0.0 
4.00161 4.0037 0.0 
4.01206 4.0174 0.0 
4.84023 3.97761 0.0 
4.13386 4.04638 0.0 
5.00317 4.00256 0.0 
4.05941 4.03838 0.0 
4.52143 3.97654 0.0 
4.13137 4.09569 0.0 
3.99752 4.02893 0.0 
4.01884 3.99521 0.0 
8.14648 2.72225 0.0 
3.98628 3.99582 0.0 
4.16362 3.95615 0.0 
4.98756 3.96669 0.0 
4.01204 4.00974 0.0 
4.77974 4.01384 0.0 
4.66787 3.98199 0.0 
4.02863 3.97467 0.0 
4.97445 3.98438 0.0 
8.1554 7.24604 0.0 
4.4515 3.95323 0.0 
4.00774 3.99043 0.0 
3.98163 4.03116 0.0 
1.58634 4.11387 0.0 
4.30612 4.09052 0.0 
4.07437 3.49323 0.0 
4.07644 3.95366 0.0 
4.17688 3.91279 0.0 
9.52987 5.94501 0.0 
5.10311 4.0306 0.0 
4.28205 4.09231 0.0 
5.07095 2.11145 0.0 
3.93422 3.94134 0.0 
13.4929 4.53387 0.0 
4.08438 4.04648 0.0 
3.98027 4.05285 0.0 
4.59547 4.05688 0.0 
4.17289 4.07199 0.0 
4.38926 4.06804 0.0 
3.98817 4.01223 0.0 
4.11992 3.96828 0.0 
4.04077 3.99338 0.0 
7.55263 2.97517 0.0 
4.67393 4.04971 0.0 
5.00543 4.01555 0.0 
3.82872 4.23117 0.0 
4.02217 3.98852 0.0 
9.83263 5.51886 0.0 
11.4017 6.00251 0.0 
3.99748 4.01455 0.0 
4.31522 4.07043 0.0 
4.31733 4.12295 0.0 
4.90875 4.04557 0.0 
5.18793 4.05304 0.0 
4.09269 4.02601 0.0 
4.64733 4.05138 0.0 
2.06406 2.66351 0.0 
3.98111 4.00805 0.0 
3.41326 0.8185 0.0 
3.99352 3.97666 0.0 
4.04479 4.03589 0.0 
4.33888 4.07436 0.0 
4.67002 3.84867 0.0 
4.28023 4.07451 0.0 
3.98468 3.9804 0.0 
4.27492 4.05293 0.0 
4.10308 3.95678 0.0 
1.03306 6.23145 0.0 
1.1263 3.34233 0.0 
4.4483 3.97371 0.0 
4.13897 4.0652 0.0 
4.01297 4.13701 0.0 
2.85705 1.68624 0.0 
3.98206 3.97395 0.0 
12.9901 3.16776 0.0 
4.25995 4.06535 0.0 
4.33915 3.91938 0.0 
3.60927 4.02019 0.0 
4.52778 3.97644 0.0 
4.00491 4.00281 0.0 
4.00375 4.03912 0.0 
4.00943 4.02943 0.0 
3.99121 4.03339 0.0 
3.99417 4.04189 0.0 
4.11351 4.49326 0.0 
4.99208 3.99845 0.0 
4.99682 3.99848 0.0 
8.2761 4.17691 0.0 
3.99997 3.99241 0.0 
11.7156 2.5943 0.0 
4.41111 4.0671 0.0 
4.00938 3.99278 0.0 
4.59364 2.21981 0.0 
3.98918 4.03714 0.0 
4.03009 4.07945 0.0 
4.01059 4.0357 0.0 
4.02322 3.97925 0.0 
3.9684 3.91509 0.0 
4.09975 3.95651 0.0 
4.13306 4.06692 0.0 
4.00056 4.04248 0.0 
1.05155 0.371395 0.0 
4.45512 4.06655 0.0 
3.9896 4.00463 0.0 
5.18814 3.88706 0.0 
3.98613 3.98439 0.0 
4.66019 3.98158 0.0 
4.09106 3.9709 0.0 
4.00273 4.04763 0.0 
4.02428 4.00868 0.0 
2.46283 1.41429 0.0 
4.1557 4.02236 0.0 
3.99804 4.00952 0.0 
4.07745 3.92655 0.0 
3.89407 3.9352 0.0 
4.74936 3.98657 0.0 
4.34762 3.90992 0.0 
3.98643 3.99986 0.0 
3.97255 3.88106 0.0 
6.127 3.88505 0.0 
3.99581 3.98523 0.0 
4.17924 3.96771 0.0 
0.970073 0 0.0 
3.98481 4.00073 0.0 
3.97761 4.0047 0.0 
7.6784 6.07821 0.0 
4.10501 3.93754 0.0 
5.00166 3.98677 0.0 
4.38623 3.97065 0.0 
4.11077 4.06077 0.0 
3.98558 4.00796 0.0 
5.04298 4.00764 0.0 
4.95558 4.10258 0.0 
4.5864 4.06825 0.0 
4.80822 4.0154 0.0 
4.05935 4.03931 0.0 
4.27982 4.05867 0.0 
14 6.70716 0.0 
4.06498 3.96487 0.0 
5.80431 4.02323 0.0 
9.29587 7.05735 0.0 
4.11333 3.95725 0.0 
4.89042 4.02036 0.0 
4.43422 4.06758 0.0 
4.20323 4.08373 0.0 
4.07076 4.03121 0.0 
4.08458 4.03008 0.0 
4.56614 4.05855 0.0 
4.49284 4.06464 0.0 
3.99705 4.04765 0.0 
4.96232 3.98271 0.0 
4.0132 4.01981 0.0 
13.2653 4.39219 0.0 
5.0004 3.98388 0.0 
9.05545 0 0.0 
4.41188 4.06801 0.0 
4.13787 3.93543 0.0 
4.9972 4.01381 0.0 
4.10918 3.95694 0.0 
4.02241 4.04141 0.0 
3.9487 4.03134 0.0 
4.1093 3.95442 0.0 
3.98795 3.99915 0.0 
4.02972 4.05235 0.0 
4.02642 3.97524 0.0 
[...]
<PointData>
  <DataArray type = "Float64" Name="Vitesse" NumberOfComponents="3" format="ascii">
1 0 0.0 
1.00613 0 0.0 
1.00467 0 0.0 
1 0 0.0 
1.02934 0.172963 0.0 
0 0 0.0 
0.14863 -0.0376939 0.0 
3.93818e-16 -4.10699e-17 0.0 
0.623307 -0.0823376 0.0 
0 0 0.0 
0.442946 0.0640698 0.0 
0.0247539 -0.00238279 0.0 
0.898034 0.245679 0.0 
1.00842 0.00130783 0.0 
1.00754 0.000828387 0.0 
0.85406 -0.0224215 0.0 
1.06832 -0.167503 0.0 
0.953938 0.0442309 0.0 
0 0 0.0 
0.342799 0.0194749 0.0 
1.05181 -0.186251 0.0 
3.36963e-05 -4.00821e-06 0.0 
0.788753 0.365898 0.0 
0.0661192 -0.0099089 0.0 
0.161383 -0.00999962 0.0 
1.03397e-267 4.20592e-269 0.0 
-5.61596e-82 -7.26924e-82 0.0 
0.0448721 -0.069161 0.0 
0 0 0.0 
0.0305115 0.0431101 0.0 
0.0816639 0.00303935 0.0 
1.0095 -0.00178227 0.0 
5.49285e-81 4.0313e-81 0.0 
0 0 0.0 
0 0 0.0 
5.07554e-06 -8.35086e-07 0.0 
0.00314763 -0.000397086 0.0 
0 0 0.0 
0.835607 0.358883 0.0 
0 0 0.0 
1 0 0.0 
0.433911 0.0044013 0.0 
0.590232 -0.228749 0.0 
1.05154 0.00219028 0.0 
0 0 0.0 
0 0 0.0 
1.00827 0.000186471 0.0 
1.00833 -0.00167214 0.0 
0.900597 -0.246021 0.0 
0.876421 -0.00664028 0.0 
0.282597 0.0240926 0.0 
0.955257 -0.0898092 0.0 
3.87062e-05 3.18553e-06 0.0 
1.00675 -0.000628312 0.0 
1.09603 0.187485 0.0 
0.898402 0.223107 0.0 
0 0 0.0 
0.00529691 -7.78937e-05 0.0 
0.867602 0.348962 0.0 
0.107721 0.00463746 0.0 
0.0572196 -0.00121022 0.0 
0.0791542 0.00392513 0.0 
1.00799 0.0010561 0.0 
0.242902 0.0263437 0.0 
0.00335626 0.000483053 0.0 
-7.65036e-138 -1.23245e-138 0.0 
0.0595737 -0.0182082 0.0 
0.0248489 -0.00486817 0.0 
1.00649 -0.000147977 0.0 
1.00584 -0.00140277 0.0 
0 0 0.0 
0.670644 -0.0828306 0.0 
0.933948 -0.234355 0.0 
0.25986 -0.0479674 0.0 
0.0257787 -0.00266438 0.0 
8.78002e-06 -3.06441e-06 0.0 
0.192255 -0.294125 0.0 
0.0616739 -0.00935361 0.0 
0 0 0.0 
0.0851399 -0.108747 0.0 
0.291146 0.0127864 0.0 
1.00577 -0.00296492 0.0 
0.0164099 0.000532783 0.0 
1.0057 -0.000701595 0.0 
0 0 0.0 
-1.31378e-289 -1.2966e-290 0.0 
0.129207 -0.0299576 0.0 
0.220729 -0.0423645 0.0 
0.736847 -0.0497447 0.0 
1.01063 0.00180886 0.0 
0 0 0.0 
1.00773 0.00123915 0.0 
0.996729 -0.00185527 0.0 
0.347331 0.00406058 0.0 
0.798881 0.0687004 0.0 
0.991224 0.0110775 0.0 
0.0813495 0.00512354 0.0 
0.789463 -0.0599046 0.0 
0.0643132 0.0141194 0.0 
0.019909 -0.00647612 0.0 
0.60969 0.162 0.0 
6.84861e-09 -1.33042e-09 0.0 
0.332788 -0.00988009 0.0 
1.00631 0 0.0 
0.196775 -0.0262455 0.0 
0.900744 0.251953 0.0 
0.01065 0.000764488 0.0 
9.79209e-277 3.98318e-278 0.0 
0.851055 0.168215 0.0 
0.96085 -0.111016 0.0 
0.910886 0.337461 0.0 
1.00034 -0.000526229 0.0 
0.465982 0.0134344 0.0 
0.412708 0.00298844 0.0 
0.934972 0.048467 0.0 
1.00858 -0.00104737 0.0 
0.788005 0.218286 0.0 
0.239173 -0.121111 0.0 
0.581287 0.0830253 0.0 
0.899664 -0.078739 0.0 
0 0 0.0 
1.00576 -0.00359538 0.0 
1.01024 -0.0022291 0.0 
1.01715 -0.0141713 0.0 
1.01767 -0.0119256 0.0 
1.00798 -0.00985027 0.0 
0.731374 0.331628 0.0 
0.0938442 -0.0107762 0.0 
1.00983 0.00151763 0.0 
0.162519 0.0296074 0.0 
1.30982e-12 3.14297e-13 0.0 
0 0 0.0 
1.00011 -0.000157586 0.0 
0.0225507 0.000290089 0.0 
0.00380531 0.000308179 0.0 
2.71661e-24 3.76236e-26 0.0 
0.145105 -0.0208413 0.0 
0.0173549 -0.00160858 0.0 
0.334096 0.174783 0.0 
0.00256161 -0.000140167 0.0 
0.801708 0.164526 0.0 
1 0 0.0 
0.01621 0.000303195 0.0 
1.0866 -0.16517 0.0 
0.0038551 -0.000280358 0.0 
0.00978593 -0.000802772 0.0 
0.008912 0.000778363 0.0 
0.105557 0.0188064 0.0 
0.00914035 0.000468111 0.0 
0.188148 -0.0276141 0.0 
0.0769835 -0.00647272 0.0 
1.00635 0.00157542 0.0 
1.05261 -0.132306 0.0 
0.142724 -0.0149994 0.0 
1.0773 -0.174454 0.0 
1.01874 -0.0782031 0.0 
0.199469 0.0239206 0.0 
1.00544 0.00606514 0.0 
0.754096 -0.102281 0.0 
0.00931506 -0.000639324 0.0 
0.788486 0.34143 0.0 
0.706692 0.0959549 0.0 
0 0 0.0 
0.999264 -0.000245222 0.0 
0.372314 -0.0061645 0.0 
2.06508e-05 7.68556e-07 0.0 
0.282983 0.0457273 0.0 
0.368835 0.0476125 0.0 
0.445022 -0.0381094 0.0 
0.0144222 0.000347377 0.0 
1.06226 0.0636321 0.0 
0.00336395 -0.000719611 0.0 
0.00337617 0.000234778 0.0 
0.145058 -0.0822457 0.0 
0.777494 0.263596 0.0 
0.857645 -0.0506369 0.0 
0 0 0.0 
0.915726 -0.131199 0.0 
0 0 0.0 
-6.7367e-59 5.68437e-60 0.0 
0.664345 -0.00258604 0.0 
-2.94268e-34 6.29533e-35 0.0 
0.0629007 -0.0176239 0.0 
1.00849 0.000726836 0.0 
0.661408 0.155017 0.0 
0.00696795 0.00023339 0.0 
1.03258 -0.00119247 0.0 
1.06534 0.189384 0.0 
1.00888 -0.00135454 0.0 
1.1069 0.168616 0.0 
0.724198 0.121389 0.0 
0.673321 0.0993155 0.0 
0.721681 0.15606 0.0 
0.932066 -0.0564638 0.0 
0.237906 -0.0184464 0.0 
4.88567e-05 2.22395e-06 0.0 
1.00973 -0.00775305 0.0 
0.792416 -0.0105927 0.0 
0.164364 -0.0986535 0.0 
0.491005 0.0315564 0.0 
0.113301 -0.0113835 0.0 
1.00559 -0.000941222 0.0 
0.117815 0.00563651 0.0 
0 0 0.0 
0 0 0.0 
-6.32867e-75 -7.8263e-75 0.0 
0.0327692 0.000380363 0.0 
1.00824 0.00153771 0.0 
0.473621 0.331387 0.0 
0.761311 0.327622 0.0 
0.0774035 -0.0140261 0.0 
0.0230569 -0.00477849 0.0 
0.00243031 -0.000376726 0.0 
1.00948 0 0.0 
0.000116106 6.54568e-06 0.0 
0.240299 0.00974458 0.0 
0.305973 0.0421219 0.0 
0.0681339 0.0163492 0.0 
4.39238e-177 -5.07461e-178 0.0 
8.85008e-296 3.59999e-297 0.0 
0.739378 -0.0109463 0.0 
1.00717 -0.000147055 0.0 
0.9466 -0.0524426 0.0 
0.610369 0.305429 0.0 
0.774987 -0.0839149 0.0 
1.00851 0.00122782 0.0 
0.0870574 -0.00943535 0.0 
1.00202 0.00172244 0.0 
0.408989 0.0387077 0.0 
0.0269383 0.000358319 0.0 
0.253125 0.00912724 0.0 
0.136416 -0.0123992 0.0 
1.00761 -0.000987363 0.0 
0.00573418 2.18415e-05 0.0 
0.120709 -0.00327845 0.0 
0.767134 0.372081 0.0 
1.00049 -0.000467533 0.0 
1.00763 -0.000368047 0.0 
1.00202 -0.000377594 0.0 
1.00874 -0.00137682 0.0 
0.319928 0.0604604 0.0 
1.60827e-306 1.56911e-307 0.0 
0.603301 0.336538 0.0 
0.0279544 -0.00243466 0.0 
0.0488843 -0.117221 0.0 
1.00976 -0.00105495 0.0 
0.249253 -0.038675 0.0 
1.62511e-76 -1.31867e-76 0.0 
1.00994 -0.259439 0.0 
0.479539 -0.446534 0.0 
1.00924 -0.00289832 0.0 
0.944966 -0.00195605 0.0 
1.03011 0.213309 0.0 
1.0163 -0.0102005 0.0 
0.941482 0.12503 0.0 
0.462847 -0.0139968 0.0 
0.000464052 2.59821e-05 0.0 
0.0442842 -0.00687976 0.0 
0.257988 -0.0464178 0.0 
0 0 0.0 
0.0388505 0.00444911 0.0 
0.987423 -0.00373265 0.0 
0.116315 -0.0143041 0.0 
1.01211 2.95264e-05 0.0 
0.255271 -0.022799 0.0 
0.185828 0.107707 0.0 
1.01582 -0.18104 0.0 
0.735863 -0.034762 0.0 
0.000921212 0.000103284 0.0 
0.271076 -0.0199297 0.0 
0.0456322 -0.00319101 0.0 
0.176947 0.00293405 0.0 
0.594923 -0.347328 0.0 
0.0354883 -0.00105597 0.0 
1.00791 -0.00136167 0.0 
0.000260757 1.9355e-05 0.0 
0.00702766 0.00057004 0.0 
0.618377 0.027452 0.0 
0.189447 0.0402075 0.0 
0.637405 0.0894334 0.0 
0.159239 0.0523522 0.0 
1.05183e-22 -1.37101e-23 0.0 
0.835044 -0.223639 0.0 
0.943488 0.155367 0.0 
0.0968407 -0.0898823 0.0 
0.981331 -0.0254795 0.0 
1.00638 0 0.0 
0.936133 0.000159608 0.0 
1.02901 0.0316651 0.0 
1.0061 -0.00106163 0.0 
0.121229 0.0111055 0.0 
0.78606 -0.231492 0.0 
0.31581 0.0748011 0.0 
0.0663316 0.00375693 0.0 
0.259886 -0.0287916 0.0 
0.0531286 -0.00207483 0.0 
0.908621 0.0110131 0.0 
0.180455 0.0236668 0.0 
0.0396685 -0.00512901 0.0 
0.00876108 0.000297856 0.0 
0.0801706 -0.00805288 0.0 
1.00517 -0.00029304 0.0 
0 0 0.0 
0.311226 0.265166 0.0 
6.28781e-11 -1.1328e-11 0.0 
0 0 0.0 
0.855521 -0.0178627 0.0 
0.0758549 0.104633 0.0 
4.23367e-35 5.47953e-35 0.0 
1.4623e-07 1.00349e-07 0.0 
0.133201 0.0060897 0.0 
0 0 0.0 
0.0149154 -0.00718179 0.0 
0.0500283 0.0164179 0.0 
0.000467349 4.30409e-05 0.0 
1.05734 0.216786 0.0 
0.606945 0.315195 0.0 
0 0 0.0 
1.00988 0.00112635 0.0 
0.460358 -0.192801 0.0 
0.339289 -0.0156737 0.0 
0.305378 0.0204413 0.0 
0 0 0.0 
-7.62753e-157 6.6593e-158 0.0 
0.0123146 0.000704287 0.0 
0.479341 -0.159994 0.0 
0.129104 0.00773297 0.0 
1.00841 -0.000605205 0.0 
0.28964 0.00682598 0.0 
0 0 0.0 
0.646361 0.180658 0.0 
0.998268 0.000817755 0.0 
0.553669 0.0289643 0.0 
1.01745 -0.043925 0.0 
0.808571 -0.14197 0.0 
1.07386 -0.0967208 0.0 
1.00861 -0.0011975 0.0 
0.156523 -0.0161996 0.0 
0.64349 0.0456268 0.0 
1.01268 -0.00286581 0.0 
0.85317 -0.117808 0.0 
1.01591 -0.00133015 0.0 
0.128616 0.0239131 0.0 
0.759634 0.197757 0.0 
0.00967354 -0.00031637 0.0 
0.4635 0.0647949 0.0 
1.69433e-23 -1.37398e-25 0.0 
0.433198 0.110475 0.0 
0.0433955 -0.00197626 0.0 
0 0 0.0 
1.01047 0.0014737 0.0 
0.011105 -0.00123832 0.0 
0.0406782 -0.0162112 0.0 
0.952556 0.0609565 0.0 
7.46276e-105 -3.60186e-105 0.0 
1.00907 -0.00131816 0.0 
1.00771 -0.00107773 0.0 
0.349892 0.265488 0.0 
0.0444516 0.00227056 0.0 
1.04233 0.0728357 0.0 
0.141601 -0.015332 0.0 
0.343567 -0.025734 0.0 
0 0 0.0 
0.00302124 -9.70255e-05 0.0 
0.999258 -0.00322531 0.0 
0.503714 0.00916906 0.0 
1.00441 -0.00209325 0.0 
0.709273 -0.378504 0.0 
0.216977 0.0806164 0.0 
0.127797 0.00114463 0.0 
1.05648 0.00331625 0.0 
0.189295 0.0101441 0.0 
0.657188 -0.286567 0.0 
0 0 0.0 
0.529155 -0.0576506 0.0 
1.00024 0.00139761 0.0 
0.999374 -0.000591189 0.0 
9.07384e-14 1.37025e-14 0.0 
0.43231 0.0768258 0.0 
0.946337 0.18165 0.0 
1.00254 -0.00413179 0.0 
0.716161 -0.267786 0.0 
1.00741 0.00167032 0.0 
-4.42732e-138 1.21291e-142 0.0 
0.846432 -0.0159258 0.0 
0.952814 0.00191353 0.0 
0.0045165 0.000587302 0.0 
-1.15177e-67 -1.49083e-67 0.0 
0.7158 0.336867 0.0 
0.620995 0.370527 0.0 
0.647359 0.256069 0.0 
0.711515 0.27083 0.0 
1.02538 0.0594883 0.0 
0.0044856 0.00021908 0.0 
0.00614255 0.000479798 0.0 
0.945505 -0.00437149 0.0 
0.275659 -0.347579 0.0 
1.00874 0.00120823 0.0 
7.5889e-24 -3.20703e-25 0.0 
0 0 0.0 
1.01249 -0.00587773 0.0 
0.676474 0.241335 0.0 
0.919271 0.282766 0.0 
0.708577 0.375292 0.0 
0.295401 -0.103604 0.0 
0.903101 -0.168843 0.0 
0.557754 -0.0641618 0.0 
0.539601 0.100255 0.0 
0.727646 0.308035 0.0 
1.00035 -0.000266013 0.0 
0.011729 -0.000497466 0.0 
0.344768 -0.0250654 0.0 
0.914308 0.0333875 0.0 
0.608206 -0.292679 0.0 
0.0127635 0.000300812 0.0 
2.72935e-07 -7.53836e-09 0.0 
0.762019 0.305001 0.0 
0 0 0.0 
1.00188 -0.00276285 0.0 
8.46809e-283 3.4446e-284 0.0 
0.19756 0.178486 0.0 
1.07932 -0.201619 0.0 
0.879366 -0.0733782 0.0 
0.0055585 0.000716564 0.0 
0.941852 -0.0213338 0.0 
0.423947 -0.124379 0.0 
0.943699 -0.146494 0.0 
0.893516 0.00993679 0.0 
0.57964 -0.434471 0.0 
0.000129639 -1.69927e-06 0.0 
1.00031 0 0.0 
0.448241 -0.10109 0.0 
0.540567 -0.0345968 0.0 
1.00982 -0.00184023 0.0 
1.00135 -0.144047 0.0 
0.124734 0.0175263 0.0 
0.0138143 -0.000230613 0.0 
0.495985 0.106359 0.0 
0.439181 0.0244297 0.0 
0.0663084 -0.00140192 0.0 
0.68627 -0.0463465 0.0 
0.128777 -0.00895247 0.0 
2.55854e-93 -2.68294e-94 0.0 
0.111979 0.03618 0.0 
0 0 0.0 
1.00528 -0.000896778 0.0 
0.473758 -0.083944 0.0 
0.451236 -0.00415393 0.0 
1.00771 -0.000604524 0.0 
0.461037 -0.0421083 0.0 
0.00245602 -0.000335098 0.0 
0.0116424 5.52607e-06 0.0 
0.670719 0.0834203 0.0 
0 0 0.0 
-1.56121e-295 -4.48211e-296 0.0 
8.79369e-14 -4.43411e-15 0.0 
0.0119895 -0.000253563 0.0 
0.748642 0.277225 0.0 
0.137792 0.00728736 0.0 
0.140174 0.0852278 0.0 
1.00277 -0.00286944 0.0 
0.150459 0.0176868 0.0 
1.00803 0 0.0 
0.00746286 -0.000300356 0.0 
0.936003 -0.0989629 0.0 
0.0330171 -0.0118059 0.0 
0.49173 -0.0487357 0.0 
0.768864 0.364387 0.0 
0.746986 0.0633092 0.0 
0.579411 -0.0614233 0.0 
0.398356 -0.148102 0.0 
0.863361 0.353996 0.0 
0.493311 -0.172514 0.0 
0.814386 0.355913 0.0 
0.00889823 0.00075694 0.0 
1.00938 -0.00174345 0.0 
0.943245 -0.334553 0.0 
0.00257837 -0.000285432 0.0 
0.746431 -0.0901979 0.0 
0.817787 0.363987 0.0 
0.782251 0.135046 0.0 
0.00302301 0.000322888 0.0 
1.04972 0.102417 0.0 
0 0 0.0 
0.175554 -0.0171145 0.0 
0.0471088 -0.0118376 0.0 
0.415453 -0.0048939 0.0 
1.00825 -0.00245082 0.0 
0.0458296 -0.00980612 0.0 
0.407228 -0.00337002 0.0 
0.810009 0.127153 0.0 
0.00907596 0.000283583 0.0 
0.45547 -0.0477418 0.0 
0.0170315 0.00120815 0.0 
-1.96038e-191 -7.46076e-192 0.0 
0.999494 0.00263592 0.0 
2.531e-05 -3.45822e-06 0.0 
0.497259 -0.353344 0.0 
0.0504299 0.00836501 0.0 
0.00599412 -3.29855e-05 0.0 
1.00447 0.0229855 0.0 
1.02112 -0.00651324 0.0 
0.697643 -0.44905 0.0 
0.767752 0.0872524 0.0 
0.852194 0.0211755 0.0 
1.74491e-06 -1.38874e-07 0.0 
2.22442e-10 -8.53231e-12 0.0 
0.971501 0.0532904 0.0 
0.00824673 0.000260823 0.0 
0.772292 -0.290261 0.0 
0.973766 -0.0142902 0.0 
0.999969 -0.00306161 0.0 
1.00769 -0.000208048 0.0 
0.0124587 0.000350659 0.0 
0.171531 0.0126701 0.0 
0.00893983 -0.00286218 0.0 
0.772622 0.0306442 0.0 
1.01072 4.13123e-05 0.0 
1.01189 -0.00155115 0.0 
0.996506 -0.00572958 0.0 
0.590972 0.0804773 0.0 
0.0429032 -0.0166643 0.0 
0.985582 -0.0292982 0.0 
0.109814 0.00557142 0.0 
-7.33917e-267 -4.8212e-268 0.0 
0.000123505 1.57502e-06 0.0 
0.892235 -0.301256 0.0 
0.928328 0.000241753 0.0 
0.00668852 -0.000106953 0.0 
0 0 0.0 
0.87622 -0.0124707 0.0 
0.862018 0.258482 0.0 
0.439492 -0.0103383 0.0 
1.00141 0.00231514 0.0 
1.00986 0.00128132 0.0 
0.221954 -0.0199754 0.0 
1.00331 -0.00791136 0.0 
0.0232799 -0.00115967 0.0 
0.388224 -0.0247123 0.0 
0.966039 0.305119 0.0 
0.890086 -0.144981 0.0 
0 0 0.0 
1.66225e-09 1.28549e-11 0.0 
0.83322 0.204131 0.0 
1.01042 -0.00034315 0.0 
0.27985 -0.0323369 0.0 
0.621331 -0.0377642 0.0 
0.981952 0.00352051 0.0 
1.01309 -0.131718 0.0 
1.00922 -0.00183857 0.0 
1.00045 0.00517177 0.0 
-6.61584e-35 -6.49864e-36 0.0 
0 0 0.0 
0.97899 0.00146232 0.0 
0.139191 0.0051879 0.0 
0 0 0.0 
1.00002 0.000495388 0.0 
1.01214 -0.294179 0.0 
0.284275 0.00938481 0.0 
0.323378 0.165603 0.0 
1.02358 -0.0131555 0.0 
0.000543518 5.57622e-05 0.0 
0.999968 0.00202409 0.0 
0.999519 -0.000244009 0.0 
1.44452e-128 8.46219e-131 0.0 
1.00457 -0.00529361 0.0 
0 0 0.0 
1.00341 -0.0036689 0.0 
1.00001 0.0010847 0.0 
1.00679 0.256691 0.0 
1.01094 -0.00223669 0.0 
0.0118889 -0.000668048 0.0 
0.0176705 0.000915082 0.0 
0.0433053 0.0104839 0.0 
1.01054 -0.00110878 0.0 
0.999514 -0.00252463 0.0 
0.2561 -0.0269028 0.0 
0.609417 -0.464368 0.0 
0.00874358 -0.000802935 0.0 
0.727261 0.191177 0.0 
1.00629 0 0.0 
0.678139 0.199052 0.0 
0.0114646 0.000350782 0.0 
0.500788 0.151864 0.0 
1.00866 -0.00123221 0.0 
0 0 0.0 
0.350172 0.240236 0.0 
1.00893 -0.000767483 0.0 
1.03636 -0.272873 0.0 
1.00817 0 0.0 
0.285941 -0.00424891 0.0 
0.60679 -0.0396221 0.0 
0.593595 -0.0733761 0.0 
0.00213878 8.63743e-05 0.0 
0.008883 -0.00293395 0.0 
0.655515 0.115461 0.0 
0.122775 0.0196644 0.0 
1.00758 0.00348856 0.0 
1.6378e-17 -1.36978e-18 0.0 
7.86115e-278 3.19772e-279 0.0 
1.09298 -0.0962385 0.0 
1.00799 -0.0448463 0.0 
0.803093 0.00182322 0.0 
1.05216 0.00113022 0.0 
1.00668 0.000368884 0.0 
0.13351 -0.076781 0.0 
5.28078e-07 -6.20758e-08 0.0 
0.0102605 0.00112253 0.0 
0.0248663 0.00674551 0.0 
0 0 0.0 
2.52473e-108 1.47902e-110 0.0 
0.536738 -0.0621612 0.0 
0.943683 -0.359563 0.0 
0.0197528 0.00062006 0.0 
0.693022 -0.288984 0.0 
0 0 0.0 
1.01042 -0.00205331 0.0 
0.0484705 -0.00344644 0.0 
0 0 0.0 
0.332575 -0.0203287 0.0 
0.395441 0.00947007 0.0 
1.00974 -0.00201586 0.0 
0.574423 0.222733 0.0 
0.650177 0.276615 0.0 
0.889604 -0.0275939 0.0 
0.921844 -0.303139 0.0 
1.00003 0.000515985 0.0 
0.745732 -0.42849 0.0 
0.951384 0.283685 0.0 
1.00807 0.000166827 0.0 
0.048468 -0.00513927 0.0 
1.14832e-05 9.41747e-07 0.0 
0.117514 -0.0214587 0.0 
0.819549 -0.244866 0.0 
0.905219 0.33191 0.0 
0.161054 0.167749 0.0 
0 0 0.0 
0.073419 -0.00606522 0.0 
0.221824 0.0683049 0.0 
0.0330835 -0.0150248 0.0 
1.01734 -0.111285 0.0 
0.843991 -0.00884172 0.0 
0.802333 -0.352205 0.0 
0.424874 0.0144033 0.0 
1.0087 0.00149624 0.0 
0 0 0.0 
0.454532 0.160228 0.0 
0.301081 0.116813 0.0 
1.0027 0.152586 0.0 
1.00902 0.00896539 0.0 
0.64524 -0.00944158 0.0 
0.275303 0.0800761 0.0 
1.0072 0.000179456 0.0 
0.837542 0.198709 0.0 
2.47071e-184 7.53692e-186 0.0 
1.00694 0.000303623 0.0 
1.00879 0.0011069 0.0 
0.0967765 0.0049643 0.0 
0 0 0.0 
1.01159 -0.00134569 0.0 
1.00846 0.000220476 0.0 
1.00051 0.00058924 0.0 
0.939669 0.0311888 0.0 
0.682669 -0.107344 0.0 
1.01026 0.00144622 0.0 
-9.94347e-59 -1.06741e-58 0.0 
1.00576 -0.000284599 0.0 
0.963977 -0.192001 0.0 
0 0 0.0 
0.000281119 2.25222e-05 0.0 
3.14299e-145 -1.80952e-146 0.0 
0.29845 -0.0258918 0.0 
0.968753 -0.341616 0.0 
1 1.25455e-189 0.0 
1.00131 0 0.0 
0.871866 -0.0450192 0.0 
0.0144756 -2.45633e-06 0.0 
1.05164e-180 -1.21498e-181 0.0 
0.848868 0.331638 0.0 
0.000258751 -1.66132e-05 0.0 
1.0096 -0.00135407 0.0 
1.00878 0.000930132 0.0 
0.0830359 0.00719591 0.0 
0.999924 -0.00226503 0.0 
1.01048 0.270832 0.0 
1 0 0.0 
0.561168 -0.20824 0.0 
1.0441 -0.0952906 0.0 
0.789633 0.165726 0.0 
0.806013 0.165295 0.0 
1.01156 -0.00214912 0.0 
0.842748 0.34561 0.0 
0.840907 0.322473 0.0 
0.846445 0.296854 0.0 
0.265627 0.0169349 0.0 
0.056469 -0.000743518 0.0 
1.00001 -0.000534218 0.0 
0.13618 0.00425273 0.0 
0.881348 -0.0714847 0.0 
1.00838 0.000580968 0.0 
1.00939 0.000158882 0.0 
0.616006 -0.116942 0.0 
1.00492 0 0.0 
-2.72057e-47 -2.64564e-48 0.0 
0.563954 0.0549291 0.0 
1.0078 -0.00076877 0.0 
1.00657 0.000183063 0.0 
8.06125e-22 -1.89797e-23 0.0 
0.157945 -0.251998 0.0 
0.244574 0.0443056 0.0 
0.265854 -0.0150401 0.0 
0.978385 -0.0134125 0.0 
2.39198e-05 2.44536e-06 0.0 
1.06229 0.135863 0.0 
0 0 0.0 
1.0065 0.000255194 0.0 
0.00348858 0.000449867 0.0 
0 0 0.0 
0.931373 -0.00378057 0.0 
0.999633 -0.00159089 0.0 
0.662259 0.00746375 0.0 
0.963318 0.0382779 0.0 
0.840841 0.341557 0.0 
0.367422 -0.0529316 0.0 
7.5669e-05 1.26538e-05 0.0 
0.975311 0.282937 0.0 
0.353472 0.0905402 0.0 
0.0165963 0.00041506 0.0 
0.735221 0.301861 0.0 
0.00863506 0.000414405 0.0 
0.0133894 -0.000220396 0.0 
0.619813 0.0108511 0.0 
1.00055 0.00243843 0.0 
0.00409333 1.82889e-05 0.0 
0.0513225 0.0117834 0.0 
0.594064 -0.0278221 0.0 
0.0919872 0.0996768 0.0 
-2.53892e-304 -7.28903e-305 0.0 
0.0753134 0.0155769 0.0 
0.859423 -0.402491 0.0 
0.226179 0.0237819 0.0 
1.00754 0.000183245 0.0 
0.882666 0.341522 0.0 
0.437016 -0.115236 0.0 
0.952366 -0.045905 0.0 
0.999953 -0.000937952 0.0 
0.888343 0.345988 0.0 
0.678206 -0.367274 0.0 
1.00492 0.00113518 0.0 
1.0086 0.000123898 0.0 
0.593499 -0.143098 0.0 
0.0038742 6.87947e-05 0.0 
0.185259 -0.00587369 0.0 
0.999545 0.0010573 0.0 
0.0433135 -0.00127791 0.0 
0.841323 0.0233603 0.0 
1.06286 -0.0567991 0.0 
0.0160522 -0.00895494 0.0 
1.00053 0.0042624 0.0 
0.339637 -0.244061 0.0 
1.05076 0.183545 0.0 
0.999953 -0.000492631 0.0 
1e-307 1e-307 0.0 
0.997243 -0.00320266 0.0 
0.242389 0.237645 0.0 
0.000209757 0.000174427 0.0 
0.112528 0.00191904 0.0 
0.311497 -0.262731 0.0 
0.229837 0.0214039 0.0 
0.0725724 -0.00823361 0.0 
1.00499 -0.00287576 0.0 
0 0 0.0 
1.04262 -0.040395 0.0 
0.470165 -0.0259186 0.0 
1.00809 -0.00163911 0.0 
1 0 0.0 
0.0375551 -0.00864804 0.0 
0.350674 0.0508347 0.0 
0.0444631 0.00102988 0.0 
-7.51346e-55 7.63694e-56 0.0 
0.00174302 -0.000459852 0.0 
0.00657999 -0.000612738 0.0 
0.0703893 0.006056 0.0 
1.21114e-267 4.92661e-269 0.0 
1.01638 0.116513 0.0 
0.64477 -0.30525 0.0 
1.08909 -0.143257 0.0 
1.45612e-24 -1.05133e-25 0.0 
0 0 0.0 
0.868664 -0.262355 0.0 
1.78128e-05 1.05247e-05 0.0 
0.526775 0.0957391 0.0 
0.0948291 0.05169 0.0 
0.982229 0.175447 0.0 
0.620929 -0.446824 0.0 
6.14227e-273 2.49852e-274 0.0 
0.984831 -0.0307869 0.0 
4.4018e-112 -7.8641e-113 0.0 
1.00561 0.00750724 0.0 
1.00722 -0.000301751 0.0 
0.50987 0.23663 0.0 
0.998838 -0.000131839 0.0 
0 0 0.0 
0.00426895 -0.000327933 0.0 
0.217808 -0.0186356 0.0 
0.456176 -0.0716511 0.0 
0.0032249 -0.000250326 0.0 
0.3286 0.0132612 0.0 
2.54256e-06 -4.58064e-07 0.0 
0.259826 0.0110758 0.0 
0 0 0.0 
1.01097 -0.0013747 0.0 
1.00717 0.000674246 0.0 
0.918676 0.0514764 0.0 
0.0787618 0.00794328 0.0 
1.00196 -0.0995378 0.0 
1.00071 -0.000591404 0.0 
0 0 0.0 
0.0173655 -0.000512843 0.0 
0 0 0.0 
0.99967 0.000423872 0.0 
0.0231137 -0.00469747 0.0 
0.0501474 0.000434282 0.0 
0.00183871 0.000132248 0.0 
1.00387 0.00268157 0.0 
0.0405952 -0.00022296 0.0 
0.00428673 0.000354367 0.0 
0.286977 -0.0317316 0.0 
1.00544 -0.000713225 0.0 
0.906519 -0.39134 0.0 
0.437547 -0.154368 0.0 
0.838552 -0.332134 0.0 
1.00869 0.00163176 0.0 