<VTKFile type="UnstructuredGrid" version="0.1" byte_order="LittleEndian">
  <UnstructuredGrid>
    <Piece NumberOfPoints="12720" NumberOfCells="25280">
      <Points>
        <DataArray type = "Float64" NumberOfComponents="3" format="ascii">
0 0 0.0 
14 0 0.0 
14 8 0.0 
0 8 0.0 
4.16782 4.09801 0.0 
4.04172 4.00812 0.0 
10.709 1.41645 0.0 
4.34622 4.0544 0.0 
4.09208 3.95602 0.0 
4.27592 4.05022 0.0 
6.86406 0 0.0 
3.96554 4.00011 0.0 
11.233 0.251178 0.0 
4.09289 4.07118 0.0 
12.5949 1.78564 0.0 
13.0202 4.81507 0.0 
4.7008 4.04547 0.0 
4.01323 3.99894 0.0 
4.57244 3.96215 0.0 
4.25007 4.10489 0.0 
4.17926 4.05465 0.0 
4.13939 3.99004 0.0 
4.00126 4.01985 0.0 
4.0106 4.0844 0.0 
4.96971 4.00811 0.0 
4.41422 3.97201 0.0 
4.24345 3.93749 0.0 
4.96284 4.02182 0.0 
4.36723 4.05555 0.0 
4.2422 4.0632 0.0 
6.2385 5.94623 0.0 
4.02169 4.00411 0.0 
4.10669 3.95257 0.0 
4.17759 3.97818 0.0 
4.09533 4.03459 0.0 
4.00922 3.99881 0.0 
4.19874 3.93672 0.0 
4.2041 4.03861 0.0 
4.01927 3.99345 0.0 
11.477 3.83623 0.0 
4.11094 4.03801 0.0 
4.27015 4.09619 0.0 
6.3702 1.65344 0.0 
4.58122 3.97825 0.0 
3.98196 3.98783 0.0 
3.98563 4.05112 0.0 
4.36023 4.05917 0.0 
4.01706 3.99618 0.0 
4.02815 4.04832 0.0 
4.35368 4.07157 0.0 
4.45841 3.97262 0.0 
4.12613 4.07084 0.0 
4.38106 4.06413 0.0 
4.17831 3.95309 0.0 
4.56487 4.13334 0.0 
2.07932 0.548086 0.0 
4.14274 3.96775 0.0 
4.31437 4.04325 0.0 
4.61386 4.06549 0.0 
4.01647 3.99236 0.0 
3.20805 5.19946 0.0 
4.97466 4.02609 0.0 
4.08493 4.0641 0.0 
4.0339 4.05256 0.0 
1.24639 1.42137 0.0 
4.16671 3.96805 0.0 
4.9246 4.01419 0.0 
4.08906 4.05701 0.0 
4.39108 4.07629 0.0 
4.40141 3.94131 0.0 
4.50354 4.06341 0.0 
5.00785 4.00312 0.0 
10.8833 7.73481 0.0 
14 6.11123 0.0 
3.9573 3.99121 0.0 
4.38807 4.09334 0.0 
3.96293 3.99513 0.0 
4.04956 3.95606 0.0 
4.27281 7.11782 0.0 
4.21942 4.06838 0.0 
4.11647 4.11237 0.0 
4.16019 4.06064 0.0 
3.99922 3.99464 0.0 
5.03684 4.01469 0.0 
4.71186 4.0449 0.0 
4.14951 3.96168 0.0 
12.5443 4.83852 0.0 
4.13821 4.07615 0.0 
14 5.21618 0.0 
4.61041 3.98059 0.0 
4.9979 4.00507 0.0 
4.80013 4.01216 0.0 
4.28749 4.07809 0.0 
0.480344 3.48124 0.0 
4.71287 3.98439 0.0 
5.00991 4.10716 0.0 
5.01074 4.00405 0.0 
4.53844 3.97611 0.0 
4.22736 3.98358 0.0 
4.09546 4.05534 0.0 
4.35343 3.94951 0.0 
4.04876 0.862009 0.0 
3.05349 4.57182 0.0 
3.98226 4.12153 0.0 
4.63588 3.98065 0.0 
6.34978 1.01595 0.0 
4.37798 8 0.0 
4.08373 4.05666 0.0 
1.85807 0.936226 0.0 
9.83707 1.45219 0.0 
3.98151 4.06653 0.0 
4.27852 0 0.0 
5.04845 4.04311 0.0 
5.00129 3.99352 0.0 
4.99875 4.00237 0.0 
4.88253 4.02225 0.0 
4.13434 4.07811 0.0 
8.94821 8 0.0 
0.21007 0.866005 0.0 
4.04485 3.97552 0.0 
4.77496 4.04435 0.0 
4.78516 4.0151 0.0 
4.59269 3.91266 0.0 
4.35017 3.94589 0.0 
6.63673 2.2505 0.0 
9.12859 4.97555 0.0 
4.74096 4.02819 0.0 
5.52872 3.97338 0.0 
4.1741 4.07586 0.0 
4.4499 3.973 0.0 
3.99442 3.99468 0.0 
4.08345 3.93575 0.0 
4.12921 3.96941 0.0 
4.68706 3.98316 0.0 
4.34963 4.12041 0.0 
3.91267 2.38613 0.0 
4.02873 4.0411 0.0 
4.88146 4.04087 0.0 
4.1136 4.05032 0.0 
4.00436 3.99817 0.0 
3.96799 4.13308 0.0 
4.12124 3.98374 0.0 
4.6565 4.07384 0.0 
10.3864 0.53398 0.0 
9.99459 4.02762 0.0 
4.95638 3.99603 0.0 
10.1868 5.07744 0.0 
4.99458 4.03862 0.0 
4.47128 3.94642 0.0 
4.02244 4.02798 0.0 
3.985 3.91757 0.0 
4.12635 4.07409 0.0 
0 1.4212 0.0 
4.25778 4.0794 0.0 
4.05465 4.0262 0.0 
7.78425 7.55642 0.0 
12.4527 5.81068 0.0 
7.05226 0.73796 0.0 
5.01331 3.98969 0.0 
7.23136 3.9789 0.0 
5.05288 4.02468 0.0 
4.60958 3.97938 0.0 
4.0644 3.93891 0.0 
4.00382 3.99165 0.0 
4.41647 4.05664 0.0 
4.12613 3.92733 0.0 
6.46783 3.99099 0.0 
4.01324 3.98391 0.0 
4.19206 3.91938 0.0 
5.81702 3.84848 0.0 
4.08722 4.02187 0.0 
4.09641 3.95124 0.0 
7.04106 1.21954 0.0 
4.09956 3.99886 0.0 
3.96293 4.03138 0.0 
4.98254 4.03858 0.0 
4.0017 4.00679 0.0 
4.23532 3.95103 0.0 
4.15667 4.04972 0.0 
3.99252 4.00665 0.0 
13.7847 1.06498 0.0 
4.17636 4.06982 0.0 
4.17187 3.96683 0.0 
4.01382 3.9423 0.0 
7.30693 0.537585 0.0 
4.46727 3.96051 0.0 
4.84591 4.02775 0.0 
13.4409 6.96746 0.0 
4.23165 4.07938 0.0 
4.13769 4.05411 0.0 
3.95778 3.98461 0.0 
5.06886 4.12388 0.0 
4.19057 4.05281 0.0 
4.10081 3.94382 0.0 
4.05695 3.98888 0.0 
4.972 3.97818 0.0 
4.66793 3.98257 0.0 
3.99651 4.05409 0.0 
4.30812 2.21613 0.0 
4.03439 3.97851 0.0 
5.00368 4.02219 0.0 
3.23153 1.96701 0.0 
3.9771 4.03148 0.0 
4.0045 4.01105 0.0 
9.23203 3.42754 0.0 
4.46831 3.97384 0.0 
4.15561 4.10177 0.0 
4.18309 4.12442 0.0 
3.96476 4.03852 0.0 
4.11244 3.97675 0.0 
3.96822 4.02719 0.0 
3.97233 4.04194 0.0 
4.08904 3.95395 0.0 
4.57972 4.04824 0.0 
4.90069 4.09889 0.0 
4.20876 3.92492 0.0 
3.92251 4.00785 0.0 
4.03517 3.98764 0.0 
4.46101 3.97411 0.0 
5.15491 3.95658 0.0 
0.213585 6.45379 0.0 
3.99877 4.00236 0.0 
4.12413 3.94147 0.0 
9.83744 7.23092 0.0 
4.37594 3.78412 0.0 
12.0606 4.10837 0.0 
4.31027 4.06924 0.0 
4.00756 4.02287 0.0 
4.00612 4.04547 0.0 
5.0401 4.02083 0.0 
4.98371 4.01321 0.0 
4.81854 3.78326 0.0 
4.22328 3.96597 0.0 
3.99486 4.0255 0.0 
12.8838 1.66753 0.0 
3.98826 4.00843 0.0 
4.72214 3.98516 0.0 
4.2973 4.11169 0.0 
4.57224 3.95904 0.0 
4.87178 4.02324 0.0 
4.05455 3.94062 0.0 
5.1486 6.42651 0.0 
9.70989 7.75915 0.0 
1.77828 0 0.0 
4.02341 4.03456 0.0 
13.213 2.39209 0.0 
4.52724 7.41561 0.0 
5.05919 4.01855 0.0 
13.1046 7.49627 0.0 
3.99369 4.08186 0.0 
4.22714 3.92146 0.0 
4.60701 3.95862 0.0 
12.8556 3.55837 0.0 
4.37377 3.94452 0.0 
4.36571 4.05311 0.0 
4.51371 3.97604 0.0 
4.03832 4.03097 0.0 
1.24078 0.550265 0.0 
9.10545 7.45594 0.0 
2.38032 0.204862 0.0 
4.30633 3.96828 0.0 
4.11851 4.05833 0.0 
3.94615 4.05384 0.0 
4.01517 4.03055 0.0 
3.98751 3.9874 0.0 
3.99882 3.99972 0.0 
7.15285 6.80318 0.0 
4.14337 4.03383 0.0 
2.34384 5.25618 0.0 
4.00725 4.01575 0.0 
3.99908 3.98836 0.0 
8.76112 4.31939 0.0 
4.12151 3.94609 0.0 
4.07058 3.96342 0.0 
4.01589 3.98377 0.0 
4.1766 6.89118 0.0 
4.21507 3.9482 0.0 
13.2912 4.91024 0.0 
4.97222 4.02124 0.0 
4.35808 3.96931 0.0 
4.45332 3.97341 0.0 
6.25452 4.08467 0.0 
4.03133 3.93268 0.0 
4.32515 3.96901 0.0 
4.02389 3.98108 0.0 
4.06128 3.97127 0.0 
4.93521 4.01256 0.0 
5.1327 4.04445 0.0 
4.63498 4.21006 0.0 
4.40411 3.9708 0.0 
5.05417 4.0144 0.0 
4.47779 4.09651 0.0 
4.76978 3.98749 0.0 
5.85061 4.74455 0.0 
4.01624 3.98079 0.0 
3.9901 3.98452 0.0 
4.26486 4.24259 0.0 
4.0407 4.01396 0.0 
12.8359 6.25575 0.0 
11.5777 3.28832 0.0 
4.08146 3.94143 0.0 
4.1943 4.08183 0.0 
10.0612 4.66978 0.0 
4.11341 4.04921 0.0 
4.23948 4.04836 0.0 
4.1797 4.07872 0.0 
4.02352 3.97115 0.0 
4.07453 4.02861 0.0 
4.36907 3.8345 0.0 
4.01006 3.98201 0.0 
2.20773 4.95939 0.0 
3.59386 3.60045 0.0 
13.2253 0 0.0 
9.8064 4.58189 0.0 
4.08227 4.04604 0.0 
4.54194 4.06044 0.0 
4.00635 3.99924 0.0 
4.2489 4.09629 0.0 
5.06347 3.99507 0.0 
4.12993 4.0556 0.0 
4.2295 4.0772 0.0 
4.42406 4.06764 0.0 
5.08198 4.04957 0.0 
5.02947 4.00625 0.0 
4.01118 4.01844 0.0 
4.00555 3.9892 0.0 
4.03214 4.03091 0.0 
3.81104 3.81818 0.0 
4.20902 3.94092 0.0 
4.37438 4.10199 0.0 
4.00941 4.01407 0.0 
4.85337 3.99207 0.0 
4.03504 3.95011 0.0 
3.99883 4.01382 0.0 
4.48603 3.95905 0.0 
4.29696 4.06865 0.0 
4.09301 4.04839 0.0 
4.5265 4.06203 0.0 
4.45491 4.12386 0.0 
4.01165 4.04753 0.0 
4.08696 3.98637 0.0 
8.79179 0 0.0 
4.23985 4.08128 0.0 
4.00213 4.00745 0.0 
4.13381 4.04659 0.0 
1.85982 7.6829 0.0 
4.99859 3.99734 0.0 
3.99752 4.02893 0.0 
4.01884 3.99521 0.0 
4.26259 4.0847 0.0 
3.98628 3.99582 0.0 
4.15753 4.05211 0.0 
4.02883 4.00251 0.0 
4.65224 4.05056 0.0 
3.88357 4.09673 0.0 
4.01204 4.00974 0.0 
4.9921 3.96662 0.0 
5.1379 4.02467 0.0 
4.09682 4.06571 0.0 
4.94916 4.0099 0.0 
8.1554 7.24604 0.0 
5.09713 3.97427 0.0 
4.00774 3.99043 0.0 
3.95054 3.99356 0.0 
3.98163 4.03116 0.0 
4.81851 1.47974 0.0 
4.84244 3.97758 0.0 
4.8432 4.01257 0.0 
4.21966 3.95807 0.0 
4.53411 4.03802 0.0 
5.0218 3.98124 0.0 
4.19511 4.06513 0.0 
3.9218 4.2304 0.0 
4.0766 3.95386 0.0 
5.10311 4.0306 0.0 
4.08661 3.96915 0.0 
5.07095 2.11145 0.0 
4.97973 3.99724 0.0 
11.821 3.46845 0.0 
7.60176 8 0.0 
3.98027 4.05285 0.0 
4.17673 3.9128 0.0 
4.13657 3.98238 0.0 
4.94585 3.97785 0.0 
4.48784 4.08431 0.0 
4.22898 4.08419 0.0 
4.04077 3.99338 0.0 
4.13114 3.94229 0.0 
4.10356 3.92407 0.0 
12.7783 5.74698 0.0 
4.96166 3.9969 0.0 
4.89756 4.04445 0.0 
4.37123 3.97025 0.0 
4.07973 4.03132 0.0 
7.178 7.26491 0.0 
4.0128 4.07405 0.0 
4.34151 4.05676 0.0 
4.99808 4.00407 0.0 
5.18793 4.05304 0.0 
4.99899 4.00472 0.0 
8.63759 1.20762 0.0 
4.2894 4.08496 0.0 
3.98111 4.00805 0.0 
2.81624 6.10545 0.0 
4.57948 0 0.0 
3.99352 3.97666 0.0 
4.56348 3.97732 0.0 
4.07781 3.97207 0.0 
4.67002 3.84867 0.0 
4.00752 4.05027 0.0 
3.98468 3.9804 0.0 
4.27492 4.05293 0.0 
4.10308 3.95678 0.0 
4.78721 4.03424 0.0 
4.10515 3.96782 0.0 
4.16819 4.05495 0.0 
5.00546 4.00308 0.0 
12.3354 6.04076 0.0 
10.5099 5.53717 0.0 
3.98206 3.97395 0.0 
12.9901 3.16776 0.0 
4.53595 4.06071 0.0 
4.07631 4.04315 0.0 
4.05739 3.99177 0.0 
5.46198 1.78237 0.0 
3.90427 3.9803 0.0 
3.80032 4.1567 0.0 
4.00375 4.03912 0.0 
2.77959 2.61137 0.0 
3.99121 4.03339 0.0 
3.99417 4.04189 0.0 
12.7429 0.70234 0.0 
4.0524 3.97084 0.0 
4.16819 4.06782 0.0 
5.00749 4.02107 0.0 
4.35893 3.97073 0.0 
13.4125 7.46568 0.0 
4.74179 4.04103 0.0 
4.27664 4.0351 0.0 
10.9896 5.75145 0.0 
3.98918 4.03714 0.0 
5.1502 4.05721 0.0 
4.49067 3.9741 0.0 
4.01059 4.0357 0.0 
4.00544 4.01275 0.0 
4.0184 4.02388 0.0 
4.09975 3.95651 0.0 
4.13306 4.06692 0.0 
4.00056 4.04248 0.0 
1.05155 0.371395 0.0 
5.35539 3.88763 0.0 
4.30915 4.07576 0.0 
3.9896 4.00463 0.0 
4.25244 4.156 0.0 
3.98613 3.98439 0.0 
4.05429 3.97126 0.0 
4.00036 4.02872 0.0 
3.8858 3.91096 0.0 
4.00273 4.04763 0.0 
4.02428 4.00868 0.0 
4.97929 3.98438 0.0 
2.46283 1.41429 0.0 
4.44125 3.97347 0.0 
4.49278 3.93003 0.0 
4.00502 3.98619 0.0 
4.02374 4.15848 0.0 
4.30008 4.06846 0.0 
4.44049 3.97227 0.0 
4.55873 4.04307 0.0 
3.98643 3.99986 0.0 
4.66372 4.02769 0.0 
4.25661 3.90758 0.0 
3.99581 3.98523 0.0 
2.15887 7.15602 0.0 
[...]
<PointData>
  <DataArray type = "Float64" Name="Vitesse" NumberOfComponents="3" format="ascii">
1 0 0.0 
1.00388 0 0.0 
1.0012 0 0.0 
1 0 0.0 
1.02929 0.172859 0.0 
0 0 0.0 
1.00743 0.000459612 0.0 
-1.07748e-137 -1.07666e-139 0.0 
0.623025 -0.0816483 0.0 
0 0 0.0 
1.0085 -1.19791e-274 0.0 
0.645871 -0.0589531 0.0 
1.00681 0.000118118 0.0 
0.918396 0.238687 0.0 
1.00657 0.00207582 0.0 
1.00999 -0.00801661 0.0 
1.63341e-05 -4.43336e-07 0.0 
0 0 0.0 
0.197555 0.00746956 0.0 
0.948186 0.0977406 0.0 
0 0 0.0 
-2.14605e-190 -1.42249e-191 0.0 
0.452427 0.336638 0.0 
0.884324 0.244625 0.0 
0.00358685 -0.000681751 0.0 
0.00531828 0.000415677 0.0 
0.659566 -0.0208453 0.0 
0.0420291 -0.00615013 0.0 
0 0 0.0 
3.45875e-12 3.5159e-13 0.0 
1.01273 -0.00211638 0.0 
0 0 0.0 
0.653413 -0.0746794 0.0 
0 0 0.0 
0 0 0.0 
0 0 0.0 
0.754207 -0.0409843 0.0 
0 0 0.0 
0 0 0.0 
0.918059 0.00282241 0.0 
0 0 0.0 
0.755762 0.0629873 0.0 
1.01027 0.000395003 0.0 
0.0110081 0.000588815 0.0 
0.590352 -0.2281 0.0 
0.752924 0.21959 0.0 
0 0 0.0 
0 0 0.0 
0.835061 0.35929 0.0 
0.0616115 0.000864279 0.0 
0.0178371 0.000245436 0.0 
0.717021 0.143762 0.0 
-3.50469e-26 1.38321e-27 0.0 
0.397433 -0.0163693 0.0 
0.963187 -0.0109531 0.0 
1.00147 -0.000854491 0.0 
0.0237783 -0.000619474 0.0 
-8.65646e-150 -8.64985e-152 0.0 
0.115347 -0.00883915 0.0 
0 0 0.0 
1.00135 0.012882 0.0 
0.0667143 -0.0101027 0.0 
0.824499 0.224772 0.0 
0.867833 0.349355 0.0 
1.00034 -0.00111733 0.0 
5.61635e-06 -8.58766e-09 0.0 
2.29069e-05 -3.78701e-06 0.0 
0.56425 0.145188 0.0 
0.158181 -0.00192162 0.0 
0.478219 0.00413607 0.0 
0.00551248 -0.000123398 0.0 
0.0249972 -0.00489079 0.0 
1.00582 -0.000236971 0.0 
1.00052 -0.00363346 0.0 
0.704951 -0.0872072 0.0 
0.509747 0.00617565 0.0 
0.670868 -0.0825196 0.0 
0.933632 -0.234541 0.0 
1.00836 0.0021969 0.0 
0.144393 0.0111666 0.0 
1.0658 0.22018 0.0 
0.110994 0.0126406 0.0 
0.199597 -0.293832 0.0 
0.0619648 -0.00942365 0.0 
0.00563165 -0.000593165 0.0 
0.199453 -0.00793344 0.0 
1.00668 -0.00836722 0.0 
0.78573 0.149146 0.0 
0.994693 -0.00838694 0.0 
0.000107978 6.50717e-06 0.0 
0.0135829 -0.00606686 0.0 
-3.46291e-294 2.67972e-295 0.0 
0.273257 0.013896 0.0 
0.999895 -0.00012384 0.0 
0.00972916 0.000793179 0.0 
0.737285 -0.0497312 0.0 
0.0295851 -0.00496453 0.0 
0.0134042 0.000845488 0.0 
-2.27451e-278 -1.61979e-279 0.0 
0.426031 0.106429 0.0 
0.347563 0.00390578 0.0 
1.00621 -0.00212395 0.0 
0.99117 0.011076 0.0 
0.907701 0.165711 0.0 
0.0113533 0.000564366 0.0 
1.00925 2.52011e-05 0.0 
1.00778 0 0.0 
0.609847 0.162131 0.0 
1.00109 -0.00126089 0.0 
1.00777 0.000526898 0.0 
0.806413 0.197978 0.0 
1.00629 0 0.0 
0.197291 -0.026271 0.0 
0.0644422 0.0140119 0.0 
0.00727174 -0.0031769 0.0 
0.00470527 -0.000742667 0.0 
0.85123 0.167796 0.0 
1.0072 0 0.0 
1.00001 -0.000111406 0.0 
0.108934 -0.0188782 0.0 
0.0478023 -0.00542652 0.0 
3.98192e-119 -3.82889e-120 0.0 
0.805629 0.0100697 0.0 
0.412806 0.00292004 0.0 
1.01084 0.00136956 0.0 
1.00954 -0.00246786 0.0 
-1.40804e-81 1.30407e-82 0.0 
0.44969 0.0114178 0.0 
0.581813 0.0827535 0.0 
0.00855003 0.00120589 0.0 
0.329784 -0.325129 0.0 
1.0612 -0.19071 0.0 
4.63215e-07 -4.03327e-08 0.0 
0.0101863 0.000523039 0.0 
0.988398 0.0515878 0.0 
1.008 -0.00990053 0.0 
0.731871 0.332393 0.0 
0.0942802 -0.0108272 0.0 
6.02122e-07 1.17464e-07 0.0 
-3.30204e-19 9.78961e-19 0.0 
0.912755 0.145022 0.0 
0 0 0.0 
0.241803 -0.0172233 0.0 
1.00715 0.000152887 0.0 
0.797954 0.000500849 0.0 
0.0106269 0.00130163 0.0 
1.00882 -0.00233426 0.0 
0.145649 -0.020938 0.0 
0.39343 0.0083192 0.0 
0.335621 0.17669 0.0 
0.917999 -0.194896 0.0 
0.802294 0.164048 0.0 
1 0 0.0 
0.373208 0.0277027 0.0 
0 0 0.0 
1.00841 -0.000424401 0.0 
1.00472 -0.0040479 0.0 
1.00874 0.000245069 0.0 
0.105775 0.0187853 0.0 
0.662679 0.00239705 0.0 
0.0999564 -0.0149374 0.0 
0.012009 0.000499117 0.0 
1.06037 -0.227954 0.0 
0.126537 -0.106529 0.0 
2.34549e-180 -1.95585e-182 0.0 
1.05258 -0.132187 0.0 
0.577489 0.00139923 0.0 
0.26307 -0.13117 0.0 
1.01856 -0.0784037 0.0 
0.974359 0.0124792 0.0 
-5.60798e-287 -1.67649e-287 0.0 
0.753924 -0.101833 0.0 
1.00917 0.000483075 0.0 
-8.44983e-203 -5.60089e-204 0.0 
0.706906 0.0961019 0.0 
0.139053 -0.0185875 0.0 
4.09254e-225 1.51849e-225 0.0 
0.371816 -0.00609999 0.0 
0 0 0.0 
0.283468 0.0458265 0.0 
1.00424 0.00157182 0.0 
0.371561 0.0480964 0.0 
0.0228051 -0.0017763 0.0 
0.952365 -0.289329 0.0 
1.00854 0.000213643 0.0 
0.186172 0.00567757 0.0 
0.00564671 -0.000794406 0.0 
1.00214 -0.00191527 0.0 
0.446069 0.0410511 0.0 
6.79699e-08 6.49982e-09 0.0 
0.720742 -0.112678 0.0 
0.858132 -0.0505747 0.0 
0 0 0.0 
0.915843 -0.130942 0.0 
0 0 0.0 
0.187126 0.0109529 0.0 
0.0062568 0.000814336 0.0 
0.777184 0.262896 0.0 
1.01064 -0.00711464 0.0 
0.0644764 -0.0206983 0.0 
0.063262 -0.0177072 0.0 
1.00362 -0.00599683 0.0 
0.661686 0.155128 0.0 
0.0248175 0.0281793 0.0 
1.01023 0.00167564 0.0 
0.00515507 5.50018e-05 0.0 
1.06684 0.191602 0.0 
1.10686 0.168699 0.0 
0.724274 0.121522 0.0 
4.67521e-109 -3.27864e-110 0.0 
0.673609 0.099463 0.0 
0.721807 0.15613 0.0 
0.715058 -0.103056 0.0 
-3.72609e-43 6.52615e-45 0.0 
0.635852 -0.0419715 0.0 
0.93395 -0.0580161 0.0 
0.792678 -0.0104072 0.0 
0 0 0.0 
0.00120723 7.73191e-05 0.0 
0.447371 0.0284539 0.0 
1 0.000249324 0.0 
0.0305602 -0.032208 0.0 
0.870764 -0.0983538 0.0 
1.00675 -0.000538976 0.0 
1.07155 -0.0361141 0.0 
0.900116 -0.00662264 0.0 
0.018123 0.00173643 0.0 
0.475111 0.330671 0.0 
0.761349 0.327654 0.0 
0.077742 -0.0140922 0.0 
0.0232262 -0.00478736 0.0 
1.05499 0.0102775 0.0 
0.0364885 0.000913118 0.0 
0.565787 0.287621 0.0 
1.00603 0.00217534 0.0 
0.395761 0.049211 0.0 
0.00683466 0.000404678 0.0 
0.957085 0.0727211 0.0 
0.23726 0.00843921 0.0 
0.00268508 -0.0003433 0.0 
1.05479 -0.248915 0.0 
1.01243 0.00155912 0.0 
1.0067 -0.000169482 0.0 
1.00113 0 0.0 
0.611044 0.306558 0.0 
1.00656 0.00391476 0.0 
1.00848 0.00120127 0.0 
0.0873394 -0.00947122 0.0 
1.00276 -0.000875067 0.0 
0.85479 0.215885 0.0 
0.94649 -0.0533101 0.0 
0.253209 0.00903584 0.0 
1.00825 0.00607144 0.0 
0.431005 0.00419883 0.0 
2.7252e-195 -2.27249e-197 0.0 
0.000443521 3.09993e-05 0.0 
0.0564334 0.0251266 0.0 
1.00049 -0.000465213 0.0 
1.00722 -0.00044288 0.0 
1.00201 -0.000374959 0.0 
0.0141753 0.00043535 0.0 
0.320672 0.0604066 0.0 
0.794105 0.100788 0.0 
0.603136 0.33685 0.0 
0.561295 -0.297174 0.0 
0.0491187 -0.117895 0.0 
1.00966 -0.00115877 0.0 
0 0 0.0 
0.999432 0.00572075 0.0 
0.148534 0.133388 0.0 
0.478218 -0.446144 0.0 
1.00995 -0.00362744 0.0 
0.771041 -0.0832788 0.0 
0.487992 -0.0823249 0.0 
0.156469 -0.064181 0.0 
1.00844 0.00302611 0.0 
0.462294 -0.013747 0.0 
1.00755 -0.0103053 0.0 
0.0446087 -0.00696341 0.0 
0.019211 0.00102652 0.0 
0.0062623 0.000811884 0.0 
0.732603 -0.0104699 0.0 
1.00725 -0.261203 0.0 
0.00867912 0.000528117 0.0 
0.123154 -0.0395825 0.0 
0.180302 -0.0250707 0.0 
0.00100395 -8.99455e-05 0.0 
0.255767 -0.0227289 0.0 
1.10082 -0.00775806 0.0 
0.0175659 0.000831281 0.0 
0.0772412 -0.00652856 0.0 
0.525365 -0.00797535 0.0 
0.00594384 9.07931e-05 0.0 
1.01552 -0.00998167 0.0 
0.407253 -0.177251 0.0 
0.594664 -0.346301 0.0 
1.09305 0.091726 0.0 
0 0 0.0 
1.00343 -0.00334497 0.0 
1.00713 -3.96225e-05 0.0 
1.02187 -0.185086 0.0 
0.658283 0.0863424 0.0 
1.00695 -0.00331018 0.0 
1.78829e-12 3.48865e-13 0.0 
-1.35088e-132 -1.11195e-133 0.0 
0.637799 0.0897266 0.0 
0.761133 -0.290392 0.0 
2.15862e-71 3.34172e-72 0.0 
1.0844 -0.0357678 0.0 
0.536595 -0.309263 0.0 
0.998325 0.00475546 0.0 
0.981546 -0.0254728 0.0 
1.00494 0 0.0 
1.008 -0.00269552 0.0 
0.135754 0.0267761 0.0 
7.14538e-31 -4.7028e-32 0.0 
-6.2946e-24 1.89532e-23 0.0 
0.810626 0.0790957 0.0 
0.121394 0.0111063 0.0 
0.101873 0.0171829 0.0 
0.388828 0.0350823 0.0 
0.00796942 -4.57392e-05 0.0 
0.260401 -0.028765 0.0 
0.0533751 -0.00213774 0.0 
0.137623 0.0969543 0.0 
0.199675 -0.178627 0.0 
0.231014 0.0961005 0.0 
0.950581 -0.0522013 0.0 
0.64309 -0.0280966 0.0 
0.691521 0.019099 0.0 
9.183e-167 3.40708e-167 0.0 
3.04008e-05 2.63112e-06 0.0 
1.01719 -0.302501 0.0 
0.311469 0.265283 0.0 
0.212227 0.00653188 0.0 
8.40037e-08 3.03349e-10 0.0 
0.11896 0.0324631 0.0 
0.00611765 -0.000229625 0.0 
0.933795 0.0110797 0.0 
0.79052 0.342239 0.0 
0 0 0.0 
1.00766 0 0.0 
0.474076 0.0424493 0.0 
2.22727e-216 8.26399e-217 0.0 
0 0 0.0 
1.00152 0.000540581 0.0 
0.0241248 0.00387138 0.0 
0.607457 0.315163 0.0 
0 0 0.0 
0.505073 0.0382588 0.0 
0.46096 -0.192238 0.0 
-1.00031e-151 -9.40167e-153 0.0 
0 0 0.0 
-5.53068e-14 4.9854e-15 0.0 
0.88687 0.0653578 0.0 
0 0 0.0 
0.308336 0.0212694 0.0 
0.161711 -0.00986182 0.0 
0.780631 0.196138 0.0 
1.51671e-05 -1.44103e-06 0.0 
1.00815 -0.000717613 0.0 
0.278542 0.0239866 0.0 
0 0 0.0 
0.725899 -0.0659206 0.0 
0.646672 0.180753 0.0 
1.00952 -0.00270831 0.0 
0.13464 0.00624908 0.0 
-3.54126e-84 3.689e-85 0.0 
0.218885 -0.00265674 0.0 
7.39583e-194 -3.86139e-195 0.0 
0.1813 0.0236255 0.0 
0.118161 0.0169094 0.0 
0.95979 0.0912673 0.0 
0.80166 -0.140656 0.0 
0.156915 -0.0161418 0.0 
0.102865 -0.00748918 0.0 
1.01265 -0.00281142 0.0 
0.008497 0.000503364 0.0 
1.01292 -0.000559294 0.0 
1.00841 0 0.0 
0.75961 0.1977 0.0 
1.0735 -0.0967346 0.0 
0 0 0.0 
0.176477 0.0089503 0.0 
0.314847 -0.00979868 0.0 
0.589617 0.05943 0.0 
0 0 0.0 
0.825607 -0.0850992 0.0 
1.08476 -0.16438 0.0 
1.0047 -0.00436461 0.0 
0.00529011 -0.000382236 0.0 
0.127659 -0.0140225 0.0 
0.0108331 0.00139626 0.0 
9.50483e-65 1.4717e-65 0.0 
1.00912 -0.000658393 0.0 
0.870924 0.269902 0.0 
-1.27679e-135 -1.27582e-137 0.0 
0.0114303 -0.00496998 0.0 
0.34415 -0.0256924 0.0 
0.0141142 -0.007226 0.0 
1.0082 0.000658534 0.0 
0.449875 0.026296 0.0 
0.504177 0.0093963 0.0 
1.00317 0.00577215 0.0 
1.00692 0 0.0 
0.708544 -0.377991 0.0 
0.0132379 0.000715427 0.0 
4.49479e-06 -5.6835e-07 0.0 
1.0559 0.00341053 0.0 
0.788404 0.317702 0.0 
0.65694 -0.285921 0.0 
0 0 0.0 
0.528161 -0.0570673 0.0 
-9.10674e-25 1.04319e-25 0.0 
0.0937073 -0.00892207 0.0 
-4.98422e-140 -4.68457e-141 0.0 
0.0200219 -0.00651322 0.0 
1.00473 -0.00330633 0.0 
1.0077 -0.00204645 0.0 
0.715799 -0.267321 0.0 
1.00926 0.0059349 0.0 
-2.04773e-46 5.40034e-48 0.0 
0.0564966 0.016312 0.0 
-5.86865e-240 -5.05361e-241 0.0 
1.01129 -0.00119869 0.0 
0.833619 -0.0457439 0.0 
0.933153 0.0469922 0.0 
0.715981 0.336777 0.0 
0.999833 -0.00624249 0.0 
0.647702 0.256088 0.0 
0.711697 0.270792 0.0 
1.00572 0.000801884 0.0 
0.30351 -0.0630823 0.0 
0.343571 0.0462228 0.0 
0.0599212 -0.0182908 0.0 
0.000106574 9.52331e-06 0.0 
1.00219 -0.000938801 0.0 
0.00307496 -0.000269968 0.0 
-1.88154e-155 -1.8801e-157 0.0 
1.00701 -0.00220985 0.0 
0.676737 0.241354 0.0 
0.356472 -0.029766 0.0 
0.013822 0.00126089 0.0 
0.70855 0.375159 0.0 
0.0632053 0.065809 0.0 
0.222257 0.108338 0.0 
0.556791 -0.0634636 0.0 
0.540453 0.0993185 0.0 
0.72784 0.30797 0.0 
1.00035 -0.000264631 0.0 
0.904297 0.025724 0.0 
0.182192 0.00546652 0.0 
0.345309 -0.0249306 0.0 
1.12142 0.117711 0.0 
0.608088 -0.291875 0.0 
0.259494 -0.0475779 0.0 
0.6092 0.340798 0.0 
0.900947 -0.0760797 0.0 
0.762088 0.305035 0.0 
0 0 0.0 
0.132729 0.00823154 0.0 
1.00188 -0.00275204 0.0 
-6.46244e-77 -2.53563e-78 0.0 
0.626845 0.00749096 0.0 
0.455321 -0.347688 0.0 
0.968588 0.169296 0.0 
7.98638e-08 2.56595e-09 0.0 
0.0128875 0.00125823 0.0 
0 0 0.0 
0.424623 -0.124068 0.0 
0 0 0.0 
1.03367 -0.0533405 0.0 
0.578749 -0.433312 0.0 
1.00202 0.00171661 0.0 
1.00031 0 0.0 
0.448781 -0.10082 0.0 
0.54102 -0.0342842 0.0 
1.00573 -0.00358069 0.0 
0.0128484 -2.65715e-05 0.0 
0.997807 0.0521489 0.0 
0.721827 0.0552933 0.0 
0.496725 0.106448 0.0 
0.935992 -0.00361077 0.0 
0.0665609 -0.00149333 0.0 
0.780703 0.366512 0.0 
0.044973 -0.0694695 0.0 
1.00805 0.00496048 0.0 
0.222809 0.0525238 0.0 
0.445262 -0.0227805 0.0 
0 0 0.0 
1.00076 -0.00233291 0.0 
0.472708 -0.084106 0.0 
0.15849 0.0665758 0.0 
0.00372651 0.000540949 0.0 
0.460104 -0.0417301 0.0 
1 0 0.0 
0.763294 0.372452 0.0 
1.0092 0.00204715 0.0 
0 0 0.0 
0.284703 -0.284959 0.0 
1.00997 -0.00260616 0.0 
0.944915 -0.0108231 0.0 
1.00943 0 0.0 
0.748756 0.277121 0.0 
0.966904 -0.16828 0.0 
0.910585 0.337686 0.0 
0.00690513 0.000764316 0.0 
0.010555 0.000409726 0.0 
0.150586 0.0178592 0.0 
0.08146 -0.00817457 0.0 
1.00753 0 0.0 
0.5007 -0.113194 0.0 
4.45294e-12 7.7767e-13 0.0 
1.00538 0.00166556 0.0 
0.0332786 -0.0118735 0.0 
0.490759 -0.0483011 0.0 
0.76895 0.36508 0.0 
0.747277 0.0633969 0.0 
0.578572 -0.0609779 0.0 
1.00087 0.00237437 0.0 
0.863347 0.35429 0.0 
0.493151 -0.172338 0.0 
0.814798 0.356386 0.0 
0.00488975 0.000341699 0.0 
0.44555 -0.0380547 0.0 
0.943194 -0.334818 0.0 
0.854897 -0.11886 0.0 
0.746029 -0.0898052 0.0 
0.225426 0.0159885 0.0 
0.188687 0.080576 0.0 
1.00784 0.000952142 0.0 
0.327039 0.0456807 0.0 
1.04981 0.103012 0.0 
0 0 0.0 
1.00146 -0.001689 0.0 
0.437 0.0791108 0.0 
0.00734878 3.67289e-05 0.0 
0.00439665 9.28991e-05 0.0 
0.271052 -0.013373 0.0 
0.0461187 -0.00985119 0.0 
0.411579 -0.00449058 0.0 
0.80982 0.127106 0.0 
0.990413 -0.037508 0.0 
0.0363154 -0.0154077 0.0 
1.00921 0.000995293 0.0 
0.454277 -0.0471211 0.0 
0.838365 -0.0224707 0.0 
0.405438 -0.00301524 0.0 
1.00992 0.00109468 0.0 
0.013779 -0.000536044 0.0 
0.780383 0.136372 0.0 
1.00704 -0.00165467 0.0 
1.00764 0.000536911 0.0 
0.4484 0.00781131 0.0 
0.189326 0.0402073 0.0 
0.799915 0.0732334 0.0 
0.0394909 0.00552965 0.0 
-3.62185e-161 -3.61909e-163 0.0 
0.696622 -0.448935 0.0 
0.767875 0.0874744 0.0 
0.847816 0.0542567 0.0 
-3.27979e-33 -5.63463e-34 0.0 
0.475925 0.289995 0.0 
6.07826e-07 5.38658e-08 0.0 
0.00457241 6.69997e-05 0.0 
0.771679 -0.28997 0.0 
1.05961 0.21896 0.0 
0.00539965 0.000567285 0.0 
1.0073 -0.000249699 0.0 
0.316154 0.0752126 0.0 
0.285596 0.13538 0.0 
0.171886 0.012776 0.0 
0.248396 -0.0389144 0.0 
1.00675 -0.00183693 0.0 
0.860193 -0.143319 0.0 
1.01026 -0.00315118 0.0 
1.01115 -0.00184486 0.0 
0.591342 0.0806734 0.0 
0.0431885 -0.0167464 0.0 
0.984712 -0.0293039 0.0 
0.0556011 0.022674 0.0 
1.02177 0.0434312 0.0 
-5.92722e-276 -4.22105e-277 0.0 
-1.55688e-15 -1.50213e-16 0.0 
0.562399 0.0217785 0.0 
0.124043 -0.00702901 0.0 
0.917211 0.00127982 0.0 
0.00217265 -0.000229607 0.0 
0.00166895 -0.000246703 0.0 
0.862164 0.258356 0.0 
0 0 0.0 
0.329664 0.0828563 0.0 
1.00839 0.00159881 0.0 
1.00633 -0.0120676 0.0 
0.806684 0.0186371 0.0 
1.00092 -0.000361074 0.0 
0.892376 -0.300078 0.0 
0.860141 0.238267 0.0 
0.966157 0.305311 0.0 
2.84608e-07 -1.73927e-07 0.0 
1.12607 0.107444 0.0 
0 0 0.0 
0.0165778 0.000675013 0.0 
0.994433 -0.00438183 0.0 
0.075719 0.0330757 0.0 
4.5216e-07 -5.61105e-09 0.0 
-9.79212e-79 -1.18934e-79 0.0 
0.280801 -0.0293867 0.0 
0 0 0.0 
0.976623 0.225696 0.0 
0.438968 -0.0102148 0.0 
0.0104624 0.00061891 0.0 
1.00045 0.00515997 0.0 
0.433654 0.110656 0.0 
1.0079 0.000605599 0.0 
0.940606 -0.100855 0.0 
0.388583 0.0210237 0.0 
1.23066e-198 1.1679e-199 0.0 
2.07156e-06 1.66043e-07 0.0 
1.01199 -0.294379 0.0 
-4.73957e-107 -3.55668e-108 0.0 
0.32473 0.168369 0.0 
-4.80456e-55 -4.37959e-56 0.0 
0.0185507 0.000404534 0.0 
0 0 0.0 
0.073503 -0.000242444 0.0 
1.02192 0.143175 0.0 
0.999519 -0.000235211 0.0 
0.987657 -0.00379754 0.0 
0.860089 -0.00061755 0.0 
1.00982 -0.00234976 0.0 
1.0034 -0.00365111 0.0 
0 0 0.0 
1.00838 -0.00112322 0.0 
1.06231 0.0637874 0.0 
1.08003 -0.194913 0.0 
1.00903 0.255356 0.0 
1.00691 -0.00104491 0.0 
0.015163 -0.000922782 0.0 
0.84388 -0.260287 0.0 
0.308494 -0.0938242 0.0 
0.952667 0.0440015 0.0 
0.608311 -0.465156 0.0 
5.81796e-07 -6.1033e-08 0.0 
8.40725e-08 -7.96158e-09 0.0 
0.727341 0.191195 0.0 
0.000277351 -7.79113e-06 0.0 
0.67839 0.199112 0.0 
-1.69268e-15 -1.56665e-16 0.0 
0.709445 -0.136209 0.0 
0.277161 -0.345513 0.0 
0 0 0.0 
1.00796 -0.000957676 0.0 
1.00875 -0.000874143 0.0 
1.0362 -0.272967 0.0 
0.00693737 0.000622412 0.0 
2.20647e-171 8.18646e-172 0.0 
3.14657e-05 -9.46078e-05 0.0 
0.0990558 -0.145152 0.0 
1.00908 0.00186834 0.0 
1.01367 -0.00165745 0.0 
0.634845 -0.136212 0.0 
0.0458679 -0.00323746 0.0 
0.914952 0.00264925 0.0 
0.134112 0.000232671 0.0 
0.590812 -0.0722179 0.0 
0.00445178 -0.00124631 0.0 
1.00729 0.00277521 0.0 
1.09269 -0.0961058 0.0 
0.0149861 -0.00724878 0.0 
0.0538943 0.00258293 0.0 
1.00941 -0.00214623 0.0 
1.0067 -0.0449718 0.0 
1.01161 0.000783547 0.0 
0.498132 -0.355845 0.0 
0.000331949 2.37937e-05 0.0 
0.954743 -0.0475645 0.0 
0.00335503 -0.000339354 0.0 
0.99634 0.00406213 0.0 
-2.96106e-157 -2.9588e-159 0.0 
0 0 0.0 
1.00995 0.00131774 0.0 
1.01073 0.000147882 0.0 
0.943306 -0.359769 0.0 
1.00455 0 0.0 
1.00713 0.00064185 0.0 
0.693104 -0.289974 0.0 
0 0 0.0 
1.01094 -0.00257834 0.0 
0.0487149 -0.00350091 0.0 
0 0 0.0 
0.31516 0.00606919 0.0 
0.930355 0.129628 0.0 
0.262308 -0.0968176 0.0 
0.681696 0.00327031 0.0 
1.00967 -0.00236489 0.0 
0.575062 0.223051 0.0 
0.65082 0.277204 0.0 
1.00768 0.000751822 0.0 
0.876415 -0.253091 0.0 
0.920417 -0.304766 0.0 
1.00003 0.000516436 0.0 
7.53167e-05 -3.98967e-06 0.0 
9.34046e-06 2.78143e-07 0.0 
0.991052 -0.0129306 0.0 
0.951754 0.28407 0.0 
0.000153219 1.2619e-05 0.0 
0.117954 -0.0215132 0.0 
0.818943 -0.244674 0.0 
0.209803 -0.0797104 0.0 
0.16123 0.167994 0.0 
0 0 0.0 
0.0946539 0.00539741 0.0 
1.00359 -0.00147892 0.0 
0.0333176 -0.0151056 0.0 
1.01725 -0.111261 0.0 
1.01823 -0.0445426 0.0 
0.801704 -0.352027 0.0 
0.561664 -0.00268125 0.0 
0.838488 0.015274 0.0 
0 0 0.0 
0.905473 0.332182 0.0 
0.948762 0.0611126 0.0 
8.24683e-15 1.18601e-15 0.0 
1.00902 0.00894524 0.0 
0.645578 -0.00917311 0.0 
0.022364 -0.00119744 0.0 
1.00671 0.000235198 0.0 
0.126817 0.0053524 0.0 
1.00574 0.153348 0.0 
1.00059 -0.00294392 0.0 
1.01017 0.000552491 0.0 
0.745548 -0.429641 0.0 
1.00777 0.00184226 0.0 
0.0361466 0.00341424 0.0 
0.932331 0.208328 0.0 
0 0 0.0 
0.977152 0.293444 0.0 
1.00808 0.000330494 0.0 
1.00809 0.229392 0.0 
1.0005 0.000587698 0.0 
0.170018 0.00450764 0.0 
0.682948 -0.107865 0.0 
1.01009 0.00180453 0.0 
0 0 0.0 
0.0102905 -4.95987e-05 0.0 
0.00748105 0.000423297 0.0 
2.73338e-05 -1.81815e-06 0.0 
0.00347015 0.000845372 0.0 
0 0 0.0 
4.14709e-05 -6.72118e-06 0.0 
0.968467 -0.341806 0.0 
1.09431 -0.11303 0.0 
0.999347 0.00076871 0.0 
0.00702276 0.000423857 0.0 
0.87227 -0.0449619 0.0 
-6.03912e-14 -4.88025e-15 0.0 
0.010252 -0.000569698 0.0 
0.849293 0.332012 0.0 
0.501081 0.151843 0.0 
0.776152 0.168347 0.0 
1.00764 0.000895456 0.0 
0.00701245 6.72273e-05 0.0 
8.57e-90 -2.09309e-90 0.0 
0.0201906 2.3861e-05 0.0 
0 0 0.0 
0.561423 -0.207609 0.0 
0.00849669 0.000696714 0.0 
0.0827748 -0.130126 0.0 
0.754411 -0.0225297 0.0 
0.805717 0.165096 0.0 
1.01154 -0.00208826 0.0 
0.842904 0.346055 0.0 
1.00129 0.00315577 0.0 
0.840811 0.322797 0.0 
0.845878 0.297018 0.0 
0.00897037 0.000155564 0.0 
0.972436 -0.0239875 0.0 
-3.22833e-62 -6.41909e-63 0.0 
1.00001 -0.000529118 0.0 
-2.44552e-142 -2.44365e-144 0.0 
0.880873 -0.0713885 0.0 
-4.14217e-167 -4.13901e-169 0.0 
0.891914 -0.0280498 0.0 
0.616251 -0.116541 0.0 
1.00187 0 0.0 
0.0924379 0.0102233 0.0 
0.00876257 0.000481338 0.0 
0.564352 0.0551457 0.0 
1.00848 -9.38063e-05 0.0 
0.0208181 0.000487201 0.0 
0.198119 0.178944 0.0 
0.16726 -0.252455 0.0 
0.439929 0.0242718 0.0 
1e-307 1e-307 0.0 
0.211744 -0.197403 0.0 
2.73994e-05 -1.97936e-06 0.0 
-4.2739e-102 -3.20723e-103 0.0 
0.897723 -0.0379226 0.0 
0.013656 0.000548524 0.0 
0 0 0.0 
1.05256e-97 -2.5707e-98 0.0 
6.9227e-201 -3.61442e-202 0.0 
0 0 0.0 
0.200337 0.0223384 0.0 
0.926675 -0.00472905 0.0 
0.662568 0.00770488 0.0 
1.51372e-05 2.20789e-07 0.0 
0.841126 0.342032 0.0 
1.01472 -0.00101991 0.0 
0.00524181 0.000314429 0.0 
4.65878e-13 -3.43273e-14 0.0 
0.353864 0.0908038 0.0 
1.00846 0.0002908 0.0 
0.735963 0.3023 0.0 
0.00573472 2.39125e-05 0.0 
1.04239 0.0731807 0.0 
0.620143 0.0110776 0.0 
1.00055 0.00243408 0.0 
0.000216751 2.14802e-06 0.0 
1.00503 0.00072288 0.0 
1.00821 0.000763236 0.0 
0.59447 -0.0275585 0.0 
1.00799 -0.00297586 0.0 
3.93493e-10 5.08021e-11 0.0 
3.10327e-05 1.34887e-06 0.0 
0.0755435 0.0155498 0.0 
0.858776 -0.402685 0.0 
1.00601 0.00240719 0.0 
1.00705 0.000147325 0.0 
0.140097 0.00765382 0.0 