<VTKFile type="UnstructuredGrid" version="0.1" byte_order="LittleEndian">
  <UnstructuredGrid>
    <Piece NumberOfPoints="12941" NumberOfCells="25721">
      <Points>
        <DataArray type = "Float64" NumberOfComponents="3" format="ascii">
0 0 0.0 
14 0 0.0 
14 8 0.0 
0 8 0.0 
4.16782 4.09801 0.0 
4.2271 4.06552 0.0 
4.97897 4.00685 0.0 
3.92963 4.17187 0.0 
4.09208 3.95602 0.0 
4.34863 4.05902 0.0 
4.33592 4.0755 0.0 
4.71312 3.984 0.0 
5.208 3.95079 0.0 
4.04003 3.97377 0.0 
3.96554 4.00011 0.0 
5.11233 0.94049 0.0 
4.39909 4.09376 0.0 
4.5072 4.06304 0.0 
4.23715 4.07498 0.0 
4.98914 4.00056 0.0 
4.01323 3.99894 0.0 
4.94487 3.99553 0.0 
4.25007 4.10489 0.0 
4.99116 4.00231 0.0 
5.05797 4.00005 0.0 
6.37237 6.5803 0.0 
4.43452 4.32978 0.0 
4.00962 4.08349 0.0 
4.82628 3.99007 0.0 
4.10076 4.04313 0.0 
4.43483 4.06708 0.0 
4.04196 3.99899 0.0 
4.21027 3.93615 0.0 
4.24767 4.06601 0.0 
4.27901 3.95275 0.0 
7.59368 3.56184 0.0 
6.99385 4.28312 0.0 
4.17759 3.97818 0.0 
4.09533 4.03459 0.0 
4.00922 3.99881 0.0 
2.9308 8 0.0 
4.05291 3.93488 0.0 
4.13348 4.05735 0.0 
4.36731 4.05544 0.0 
9.91833 3.08437 0.0 
5.1639 3.91995 0.0 
4.23257 3.9666 0.0 
3.93682 3.99751 0.0 
4.11094 4.03801 0.0 
2.88402 3.57699 0.0 
4.00051 3.91421 0.0 
4.19353 4.07857 0.0 
9.56228 4.86405 0.0 
4.36514 4.0903 0.0 
4.67388 3.98258 0.0 
4.56268 4.05984 0.0 
4.12706 3.96728 0.0 
4.02815 4.04832 0.0 
4.92342 3.98863 0.0 
3.93749 4.02683 0.0 
7.22806 4.74915 0.0 
4.56641 3.97645 0.0 
4.23781 4.08596 0.0 
4.24569 4.05438 0.0 
6.39089 4.07894 0.0 
2.44506 7.17875 0.0 
4.96507 4.02144 0.0 
4.01828 4.02196 0.0 
4.02033 4.02401 0.0 
4.01647 3.99236 0.0 
4.00327 3.99438 0.0 
4.57892 3.94394 0.0 
4.02651 3.98657 0.0 
4.03303 3.97898 0.0 
3.87646 4.36416 0.0 
0 6.15459 0.0 
4.0192 3.99331 0.0 
4.09891 4.09363 0.0 
4.04148 4.03087 0.0 
4.97524 4.02614 0.0 
4.17785 3.95317 0.0 
5.07942 3.96553 0.0 
5.00785 4.00312 0.0 
10.8833 7.73481 0.0 
4.01239 4.11605 0.0 
14 6.11123 0.0 
4.98706 4.00421 0.0 
3.99379 4.00703 0.0 
3.96293 3.99513 0.0 
6.48058 8 0.0 
4.56318 4.05871 0.0 
4.0008 3.98691 0.0 
5.05179 3.95791 0.0 
4.05779 3.94742 0.0 
3.88293 4.06948 0.0 
4.85337 3.99187 0.0 
4.02428 4.03941 0.0 
4.00801 3.98741 0.0 
4.50689 4.06362 0.0 
3.47112 3.44686 0.0 
5.03684 4.01469 0.0 
4.21335 3.96565 0.0 
7.56656 2.21648 0.0 
13.3549 8 0.0 
4.48665 4.03438 0.0 
4.00325 3.99017 0.0 
4.36762 4.08678 0.0 
14 5.21618 0.0 
6.64043 6.6588 0.0 
5.01567 4.00099 0.0 
4.0339 4.05256 0.0 
4.28749 4.07809 0.0 
3.94943 3.96456 0.0 
4.58953 3.97785 0.0 
4.76751 4.0543 0.0 
4.80536 4.01156 0.0 
4.31442 4.05291 0.0 
4.29529 4.08944 0.0 
4.85621 4.0249 0.0 
8.08359 1.05344 0.0 
4.35343 3.94951 0.0 
13.5869 1.32349 0.0 
4.04206 4.03833 0.0 
4.74685 2.00431 0.0 
4.57894 1.01439 0.0 
4.80047 3.96561 0.0 
3.05817 4.59047 0.0 
4.34569 4.08404 0.0 
4.0163 3.96924 0.0 
4.37798 8 0.0 
4.12623 4.0709 0.0 
4.08373 4.05666 0.0 
4.09568 4.05562 0.0 
12.1222 6.79508 0.0 
4.62072 3.96435 0.0 
4.27852 0 0.0 
5.04845 4.04311 0.0 
4.29262 4.07791 0.0 
4.41868 4.07883 0.0 
4.06234 3.9498 0.0 
4.13434 4.07811 0.0 
4.6277 4.05577 0.0 
3.94969 4.08972 0.0 
4.87076 4.02209 0.0 
4.70266 8 0.0 
4.65763 4.05099 0.0 
4.19767 3.93669 0.0 
3.94009 3.99141 0.0 
5.12437 3.90419 0.0 
4.88044 0 0.0 
4.22225 3.98357 0.0 
11.8856 5.40534 0.0 
5.52872 3.97338 0.0 
4.1741 4.07586 0.0 
3.99922 3.99464 0.0 
4.22354 3.96624 0.0 
1.00301 3.05384 0.0 
4.01076 4.00369 0.0 
4.17517 3.96423 0.0 
4.66618 3.9822 0.0 
4.3018 4.08028 0.0 
3.91267 2.38613 0.0 
4.02873 4.0411 0.0 
4.88146 4.04087 0.0 
4.29787 4.08601 0.0 
4.08859 4.05676 0.0 
4.75148 4.06189 0.0 
4.02297 4.02321 0.0 
4.02482 3.96981 0.0 
4.12124 3.98374 0.0 
4.76817 4.03783 0.0 
3.98822 4.0043 0.0 
4.08226 3.93581 0.0 
4.17912 4.05461 0.0 
13.1088 3.43087 0.0 
4.24743 3.99271 0.0 
3.97807 4.03955 0.0 
4.99458 4.03862 0.0 
4.17009 4.05996 0.0 
5.00671 4.01055 0.0 
4.1829 4.06659 0.0 
4.12635 4.07409 0.0 
0 1.4212 0.0 
4.28752 3.96793 0.0 
4.92914 3.96046 0.0 
4.18679 4.08465 0.0 
4.19243 4.16581 0.0 
4.25898 4.13439 0.0 
5.05864 3.96895 0.0 
4.04894 3.98467 0.0 
4.25777 4.07923 0.0 
4.9908 4.01037 0.0 
4.96347 3.98813 0.0 
4.0644 3.93891 0.0 
0.451199 4.22601 0.0 
4.16503 4.11076 0.0 
4.33993 3.99403 0.0 
4.08993 3.97025 0.0 
4.80139 3.96133 0.0 
4.19206 3.91938 0.0 
4.23152 3.94567 0.0 
3.96023 4.01528 0.0 
4.09641 3.95124 0.0 
4.12454 3.92729 0.0 
4.08491 4.0641 0.0 
3.96293 4.03138 0.0 
3.58874 5.42911 0.0 
4.06298 3.99231 0.0 
4.40914 3.97124 0.0 
4.23768 4.04493 0.0 
4.51721 4.0623 0.0 
4.21125 3.95113 0.0 
3.99252 4.00665 0.0 
4.12325 3.89239 0.0 
4.17636 4.06982 0.0 
4.01378 4.004 0.0 
4.01104 3.98573 0.0 
3.94066 3.96869 0.0 
4.42847 4.11984 0.0 
3.95819 3.97698 0.0 
4.88631 4.02141 0.0 
4.55084 4.09617 0.0 
4.23165 4.07938 0.0 
5.00048 3.9712 0.0 
4.15636 4.04974 0.0 
3.95778 3.98461 0.0 
4.10915 4.05022 0.0 
3.9419 3.97853 0.0 
4.35258 4.06682 0.0 
4.19018 4.05306 0.0 
4.10081 3.94382 0.0 
4.6933 4.07221 0.0 
4.77679 6.83218 0.0 
4.1871 4.07564 0.0 
3.99651 4.05409 0.0 
5.50065 6.93147 0.0 
4.22913 4.08121 0.0 
5.00368 4.02219 0.0 
4.00325 3.99521 0.0 
3.9771 4.03148 0.0 
4.30207 3.96792 0.0 
4.97906 4.00609 0.0 
9.67221 0.852756 0.0 
4.15561 4.10177 0.0 
4.18309 4.12442 0.0 
3.96476 4.03852 0.0 
4.36006 4.05676 0.0 
5.41927 4.06199 0.0 
3.85986 3.76567 0.0 
5.05369 3.98339 0.0 
3.96822 4.02719 0.0 
3.97233 4.04194 0.0 
3.98573 3.91699 0.0 
4.52188 3.97702 0.0 
3.9956 4.03796 0.0 
4.39564 4.08373 0.0 
4.43094 3.96624 0.0 
4.20876 3.92492 0.0 
3.92251 4.00785 0.0 
4.35474 4.08037 0.0 
4.01706 3.99618 0.0 
4.05538 3.9957 0.0 
4.2266 4.04317 0.0 
4.11371 4.05233 0.0 
4.3089 4.04268 0.0 
4.35282 4.06185 0.0 
12.7967 4.95651 0.0 
4.95988 4.00928 0.0 
4.14583 4.0438 0.0 
3.94564 3.99975 0.0 
3.9986 0 0.0 
4.74291 4.0412 0.0 
4.74325 4.04 0.0 
5.0401 4.02083 0.0 
4.98371 4.01321 0.0 
4.9379 4.01215 0.0 
4.0062 4.04545 0.0 
4.52064 4.08001 0.0 
9.28793 6.2702 0.0 
4.9325 4.07819 0.0 
11.7013 4.10211 0.0 
4.27554 4.05011 0.0 
4.35067 3.94541 0.0 
4.16477 4.06268 0.0 
4.1384 3.95607 0.0 
2.18452 1.43095 0.0 
4.18442 4.04414 0.0 
4.5533 4.04791 0.0 
6.54711 3.00871 0.0 
4.36894 4.08372 0.0 
4.05428 3.94079 0.0 
4.34994 4.09246 0.0 
4.71379 4.04346 0.0 
4.02341 4.03456 0.0 
4.55503 4.06085 0.0 
4.52724 7.41561 0.0 
5.05919 4.01855 0.0 
4.22232 3.99113 0.0 
3.99915 4.34557 0.0 
4.1879 3.79397 0.0 
4.00374 3.93898 0.0 
4.82766 4.02967 0.0 
4.00064 4.0045 0.0 
4.49184 4.06493 0.0 
4.93549 4.00315 0.0 
4.17287 3.96796 0.0 
4.63926 4.06169 0.0 
4.06103 3.9941 0.0 
4.45327 4.05752 0.0 
1.24078 0.550265 0.0 
4.24532 4.11643 0.0 
4.67088 3.98276 0.0 
2.38032 0.204862 0.0 
4.56873 3.97702 0.0 
9.1005 7.43296 0.0 
4.98027 3.9984 0.0 
4.26148 3.94171 0.0 
4.4753 3.98368 0.0 
4.25416 3.95119 0.0 
6.43644 7.53599 0.0 
4.01517 4.03055 0.0 
4.15248 3.96199 0.0 
4.01015 4.01832 0.0 
4.69777 4.06442 0.0 
4.2284 4.07124 0.0 
4.02246 4.02836 0.0 
4.6861 4.09305 0.0 
3.99908 3.98836 0.0 
5.14793 4.17318 0.0 
4.12151 3.94609 0.0 
4.35848 4.05918 0.0 
4.18202 3.96307 0.0 
0.808626 5.25399 0.0 
4.38842 4.0764 0.0 
5.01588 4.10724 0.0 
4.09585 3.9919 0.0 
4.97222 4.02124 0.0 
10.366 2.72684 0.0 
4.12673 3.95742 0.0 
4.0284 4.03117 0.0 
4.68949 4.0552 0.0 
4.2163 3.94824 0.0 
8.23482 7.7858 0.0 
4.22957 3.95099 0.0 
5.15659 3.95296 0.0 
4.00044 4.00535 0.0 
5.1327 4.04445 0.0 
4.17034 3.96719 0.0 
6.89479 7.20775 0.0 
4.5442 3.97672 0.0 
4.08489 3.96352 0.0 
3.86005 4.03297 0.0 
4.2655 3.94563 0.0 
4.1795 3.96661 0.0 
5.67549 5.23722 0.0 
3.99014 3.98454 0.0 
4.12408 3.94161 0.0 
10.2807 1.2926 0.0 
4.64768 4.0516 0.0 
5.23738 3.9668 0.0 
4.66701 4.07141 0.0 
4.0089 4.00797 0.0 
4.22542 3.92155 0.0 
4.12243 3.96659 0.0 
4.944 3.99645 0.0 
4.36051 4.07918 0.0 
6.24658 4.08565 0.0 
3.99623 4.0615 0.0 
2.65179 3.74537 0.0 
4.25795 4.11099 0.0 
1.63427 7.45641 0.0 
4.03513 3.9876 0.0 
4.02699 4.00512 0.0 
3.99522 3.95021 0.0 
4.255 4.06009 0.0 
4.50779 4.06489 0.0 
4.51983 4.11882 0.0 
4.28239 3.94679 0.0 
9.64424 3.48549 0.0 
4.30211 3.98484 0.0 
10.7487 6.98032 0.0 
4.17983 4.0788 0.0 
4.55862 4.05907 0.0 
4.28395 4.08907 0.0 
4.2489 4.09629 0.0 
5.06347 3.99507 0.0 
3.87388 4.19351 0.0 
4.2295 4.0772 0.0 
4.32398 4.05563 0.0 
5.08198 4.04957 0.0 
4.57006 4.05784 0.0 
5.02947 4.00625 0.0 
4.57015 4.10241 0.0 
4.91457 3.99499 0.0 
4.85256 4.00914 0.0 
4.13828 3.82508 0.0 
3.98207 3.99993 0.0 
6.91256 3.08935 0.0 
4.97741 4.01129 0.0 
8.89521 3.00993 0.0 
5.46391 0 0.0 
4.39612 4.04 0.0 
4.61126 3.9242 0.0 
3.99883 4.01382 0.0 
3.99882 3.99972 0.0 
4.40611 3.97133 0.0 
4.08942 3.95104 0.0 
4.75611 4.0376 0.0 
3.81271 3.98978 0.0 
4.01165 4.04753 0.0 
11.4717 0.893933 0.0 
4.37272 5.71016 0.0 
4.20227 4.08039 0.0 
4.23985 4.08128 0.0 
3.9628 1.8174 0.0 
4.70439 4.12636 0.0 
4.14183 3.94415 0.0 
4.10203 3.95404 0.0 
4.95013 4.23385 0.0 
3.99752 4.02893 0.0 
4.11523 4.05303 0.0 
4.26259 4.0847 0.0 
4.15582 4.07076 0.0 
3.97683 4.10031 0.0 
4.32459 3.96415 0.0 
4.73056 4.04295 0.0 
4.1339 4.047 0.0 
7.69612 2.66902 0.0 
3.93699 3.52266 0.0 
4.01204 4.00974 0.0 
4.24602 4.08879 0.0 
4.19811 3.99725 0.0 
4.55897 3.97743 0.0 
0.371987 0.577063 0.0 
4.08637 3.98671 0.0 
8.1554 7.24604 0.0 
4.34634 4.12041 0.0 
4.00432 3.99827 0.0 
4.13599 4.11602 0.0 
6.46237 5.54311 0.0 
4.39616 3.97081 0.0 
4.87302 4.05381 0.0 
4.99566 3.98919 0.0 
0.374979 4.67127 0.0 
4.08943 3.92607 0.0 
4.08123 3.94142 0.0 
4.0911 3.98345 0.0 
4.14295 3.97632 0.0 
4.55344 4.06024 0.0 
8.87792 8 0.0 
5.24138 0.4505 0.0 
4.97397 3.97784 0.0 
5.0218 3.98124 0.0 
4.07393 4.02262 0.0 
6.60052 7.75686 0.0 
5.01406 4.00201 0.0 
4.0766 3.95386 0.0 
4.8372 4.02775 0.0 
5.10311 4.0306 0.0 
3.87595 4.2638 0.0 
4.54162 4.05023 0.0 
4.17209 4.06441 0.0 
3.99924 4.00166 0.0 
4.10808 3.96074 0.0 
4.08645 3.96932 0.0 
4.96568 3.99689 0.0 
4.52805 4.06448 0.0 
3.98027 4.05285 0.0 
4.42038 4.06792 0.0 
4.89318 4.00729 0.0 
5.7881 3.77137 0.0 
9.99449 1.23884 0.0 
6.53285 4.20702 0.0 
4.46537 4.84058 0.0 
4.33925 3.94069 0.0 
[...]
<PointData>
  <DataArray type = "Float64" Name="Vitesse" NumberOfComponents="3" format="ascii">
1 0 0.0 
1.0004 0 0.0 
0.999751 0 0.0 
1 0 0.0 
1.03163 0.172764 0.0 
0.0348282 0.00207852 0.0 
0.00440065 -0.000815626 0.0 
0.93302 0.105689 0.0 
0.62236 -0.0816664 0.0 
1e-307 1e-307 0.0 
0.156001 0.00306139 0.0 
0.0148691 0.000732322 0.0 
0.512743 0.0283496 0.0 
0.300584 -0.0728541 0.0 
0.646712 -0.0575009 0.0 
1.00837 -0.00120839 0.0 
0.512919 0.00421171 0.0 
0.000591274 -3.15434e-05 0.0 
0.299243 0.0246908 0.0 
5.50527e-35 3.86986e-36 0.0 
0 0 0.0 
0.00891447 0.000251097 0.0 
0.95044 0.0977503 0.0 
0.000191433 -3.80044e-05 0.0 
0.0983831 0.00723124 0.0 
1.00949 -0.00272417 0.0 
1.08715 0.0380153 0.0 
0.882425 0.244964 0.0 
0.00695009 0.000383599 0.0 
3.43903e-21 6.11487e-22 0.0 
0.0105298 0.000188635 0.0 
0 0 0.0 
0.743125 -0.036416 0.0 
3.61736e-09 2.76945e-10 0.0 
0.306491 -0.000375226 0.0 
1.03903 0.00572236 0.0 
1.00749 -0.00379442 0.0 
0 0 0.0 
0 0 0.0 
0 0 0.0 
1.00388 0 0.0 
1.05501 -0.24505 0.0 
0.148608 0.0230815 0.0 
0 0 0.0 
0.999438 0.00221234 0.0 
0.741061 0.0349982 0.0 
0.0255556 -0.000937155 0.0 
0.764114 -0.0379094 0.0 
0 0 0.0 
0.991122 -0.00431285 0.0 
0.94532 -0.207306 0.0 
0.571124 0.0733976 0.0 
0.999459 -0.000127159 0.0 
0.469941 0.00908613 0.0 
0.00976373 0.000613018 0.0 
0.012432 -0.000846513 0.0 
0.0620868 -0.00384437 0.0 
0.83752 0.358332 0.0 
0.0639985 0.0033047 0.0 
0.76928 0.0384626 0.0 
1.01201 -0.00737683 0.0 
0.0231529 0.00111966 0.0 
0.608703 0.0578594 0.0 
1e-307 1e-307 0.0 
0.765052 -0.012309 0.0 
1.00265 0.00188618 0.0 
0.0430248 -0.00631843 0.0 
0.0809225 0.0336204 0.0 
0.154787 0.0762432 0.0 
0 0 0.0 
1.94247e-177 -9.26702e-178 0.0 
0.437607 0.0116594 0.0 
7.6174e-34 -2.99592e-34 0.0 
0.0519322 -0.0126108 0.0 
0.984275 0.0636491 0.0 
1 0 0.0 
0 0 0.0 
1.04765 0.251118 0.0 
4.32896e-15 1.81522e-15 0.0 
0.069462 -0.0104084 0.0 
0.395121 -0.0165682 0.0 
0.346162 0.0288539 0.0 
0.0250191 -0.00463914 0.0 
1.00014 -0.000133262 0.0 
0.928955 0.202644 0.0 
0.999759 4.63263e-05 0.0 
0.00230075 -0.000465434 0.0 
0.253863 0.0720586 0.0 
0.671674 -0.0811846 0.0 
1.00798 0 0.0 
0.000106088 -4.40141e-06 0.0 
0.515041 -0.443713 0.0 
0.407432 0.0321896 0.0 
1.02138 -0.235912 0.0 
0.870952 0.050878 0.0 
0.0007818 6.46791e-05 0.0 
0.731115 0.347693 0.0 
0.222035 -0.140222 0.0 
0.00931148 -0.000470271 0.0 
0.988806 -0.0190335 0.0 
0.0636075 -0.00927241 0.0 
0.045875 0.000665599 0.0 
1.00838 0.00468023 0.0 
0.999753 0 0.0 
0 0 0.0 
0.27797 -0.255389 0.0 
0.391471 0.00571187 0.0 
0.999801 0.000116687 0.0 
1.00872 -0.00297181 0.0 
0.044758 0.00266702 0.0 
0.869269 0.348214 0.0 
0.275025 0.0110516 0.0 
0.794791 -0.130228 0.0 
0.0191925 0.00101528 0.0 
0.120474 -0.0121156 0.0 
4.54002e-192 -4.10981e-193 0.0 
0 0 0.0 
0.549878 0.0319071 0.0 
1.46032e-17 -1.68272e-18 0.0 
1.00587 0.0020282 0.0 
0.348017 0.00385326 0.0 
1.00038 0.000238457 0.0 
0.42511 0.155981 0.0 
1.01103 -0.0043135 0.0 
1.00753 -0.00218455 0.0 
0.241272 0.0103097 0.0 
0.991446 0.0113755 0.0 
0.348476 0.00725794 0.0 
0.876923 -0.384429 0.0 
1.00769 0 0.0 
0.720875 0.145876 0.0 
0.612828 0.164031 0.0 
0.438765 0.108227 0.0 
0.999693 -9.65241e-05 0.0 
0.188896 0.00753296 0.0 
1.00605 0 0.0 
0.204641 -0.0269237 0.0 
0.260665 0.0110951 0.0 
0.210229 -0.00324925 0.0 
0.977496 -0.212964 0.0 
0.854434 0.168749 0.0 
0.0258656 -0.00239 0.0 
0.855291 0.130542 0.0 
2.32181e-19 -2.81604e-20 0.0 
1.00829 0 0.0 
0.00793555 -0.000698672 0.0 
0.757507 -0.0416043 0.0 
0.761114 -0.0570154 0.0 
0.840688 0.0363721 0.0 
1.00726 0 0.0 
1e-307 1e-307 0.0 
0.999385 9.17207e-05 0.0 
0.457502 0.0122525 0.0 
0.582404 0.082521 0.0 
0.197981 -0.293244 0.0 
0.0327032 9.39828e-06 0.0 
0.999657 -0.000692597 0.0 
0 0 0.0 
0.0959351 -0.00297047 0.0 
0.00957048 0.000950147 0.0 
0.310449 0.0151016 0.0 
1.00771 -0.009586 0.0 
0.735126 0.331854 0.0 
0.096859 -0.0112798 0.0 
0.461344 0.0247008 0.0 
0.562026 0.145814 0.0 
0.178551 -0.0163678 0.0 
-8.77385e-78 -4.35795e-78 0.0 
0.791493 -0.294896 0.0 
0 0 0.0 
0.0040434 -0.00070426 0.0 
0.376996 -0.0336385 0.0 
1.06232 -0.192651 0.0 
0 0 0.0 
0.999954 0.000437894 0.0 
0 0 0.0 
0.702525 0.179251 0.0 
0.150407 -0.021416 0.0 
0.039481 0.00721932 0.0 
0.0300767 -0.0141184 0.0 
0.223179 0.0262207 0.0 
0.805205 0.165853 0.0 
1 0 0.0 
0.0106621 0.000372309 0.0 
0.343373 0.0153313 0.0 
0.762495 0.10692 0.0 
1.09614 0.143578 0.0 
1.12251 0.116338 0.0 
0.307673 0.0284159 0.0 
-1.18097e-253 8.7633e-255 0.0 
0.369674 0.0273519 0.0 
0.0201508 -0.00542808 0.0 
0.0879917 0.00465095 0.0 
1.0606 -0.227682 0.0 
0.999935 0.000263909 0.0 
1.0933 0.185456 0.0 
1.41967e-257 1.2911e-258 0.0 
0.0414534 -0.00473891 0.0 
0.287262 0.0119566 0.0 
1.01891 -0.0780492 0.0 
0.499513 -0.0125949 0.0 
0.679076 0.0262706 0.0 
0.75367 -0.10191 0.0 
1.05449 -0.134426 0.0 
0.827171 0.226566 0.0 
0.707816 0.0973736 0.0 
1.0069 0.0135834 0.0 
0 0 0.0 
0.0138012 0.000933358 0.0 
0 0 0.0 
0.000204936 -1.21245e-05 0.0 
0.395558 -0.0101026 0.0 
0.28402 0.0481517 0.0 
1.08771 -0.137209 0.0 
0.371882 0.0477582 0.0 
0 0 0.0 
0.201292 -0.122489 0.0 
0.798015 -0.105186 0.0 
0.911522 0.0171503 0.0 
0.743246 -0.134073 0.0 
0.00419455 -0.000404538 0.0 
0.517643 -0.0181387 0.0 
0.447468 0.0408111 0.0 
0.269868 0.0225773 0.0 
0 0 0.0 
0.720598 -0.111417 0.0 
0.0333211 0.00715537 0.0 
0.775882 -0.0900101 0.0 
6.75608e-15 4.98545e-16 0.0 
0 0 0.0 
0.915505 -0.131352 0.0 
0.249045 -0.019247 0.0 
1.01017 0.00182453 0.0 
0.510885 0.0668339 0.0 
0.77876 0.263779 0.0 
1.01027 -0.000152198 0.0 
0.508362 0.0486985 0.0 
0.0652568 -0.0177717 0.0 
6.17218e-177 -2.94458e-177 0.0 
0.662859 0.156647 0.0 
0.0176231 0.000687053 0.0 
0.00276367 -0.000480002 0.0 
1.00287 0.0012401 0.0 
1.06959 0.191993 0.0 
1.10804 0.168597 0.0 
0.725206 0.12268 0.0 
1e-307 1e-307 0.0 
0.51932 -0.0241168 0.0 
0.966727 -0.0629198 0.0 
0.184965 0.0214539 0.0 
0.674614 0.100881 0.0 
0.722827 0.157342 0.0 
0.919388 -0.19446 0.0 
1.07388e-14 1.07382e-15 0.0 
0.689214 0.287642 0.0 
0.310274 -0.00120141 0.0 
0.0931674 0.00358565 0.0 
0.934303 -0.0575787 0.0 
0.793728 -0.00942429 0.0 
0.256911 0.00327443 0.0 
0 0 0.0 
0 0 0.0 
0 0 0.0 
0.0850969 0.0170521 0.0 
0 0 0.0 
1e-307 1e-307 0.0 
0.999645 0.000236527 0.0 
0.00265685 -0.000421312 0.0 
0 0 0.0 
0.737103 -0.038183 0.0 
1.00542 0 0.0 
0.00618634 -0.00049136 0.0 
1.5862e-08 -9.31596e-10 0.0 
0.0803674 -0.0141 0.0 
0.0238081 -0.00488372 0.0 
0.00113391 -9.68014e-05 0.0 
0.763781 0.328893 0.0 
0.256805 -0.0115307 0.0 
1.00009 -0.00297119 0.0 
0.452326 -0.0370256 0.0 
0.999425 0.000716708 0.0 
0 0 0.0 
0.42148 0.00288415 0.0 
0.169255 0.0190576 0.0 
0.405196 -0.0275168 0.0 
1.00129 -0.0022506 0.0 
0 0 0.0 
0 0 0.0 
1.01048 0.00326163 0.0 
0.323827 0.00351822 0.0 
1.05458 -0.2494 0.0 
0.532948 0.0154218 0.0 
1.99436e-06 -1.07743e-07 0.0 
0.613229 0.305201 0.0 
0.0176752 -0.00126146 0.0 
1.00838 0.00116518 0.0 
0.0901119 -0.00943999 0.0 
4.91101e-304 4.62044e-305 0.0 
1.00124 0.0838982 0.0 
1.0643 -0.0800998 0.0 
0.923076 -0.266265 0.0 
0.00267516 -0.000274371 0.0 
0.00952154 0.0121583 0.0 
0.014424 -0.000626868 0.0 
-7.88188e-55 6.96531e-56 0.0 
0.000265229 -2.24294e-05 0.0 
0.0942099 -0.0078329 0.0 
0 0 0.0 
3.73101e-125 -1.89034e-126 0.0 
1.00047 -0.00044534 0.0 
1.07005 0.118492 0.0 
0.00609262 0.000339527 0.0 
1.00192 -0.000352606 0.0 
0.0175134 0.000877007 0.0 
1.00196 -0.00107276 0.0 
6.02939e-05 1.97764e-06 0.0 
0.54991 -0.0107179 0.0 
5.39571e-54 6.77414e-55 0.0 
0.352683 -0.00298423 0.0 
1.00827 -0.000825784 0.0 
0.606247 0.337913 0.0 
0.184895 -0.00808437 0.0 
0.177884 0.13145 0.0 
0.165883 -0.0142596 0.0 
0.208502 0.0158609 0.0 
0.359613 0.184282 0.0 
0.506204 -0.0293861 0.0 
0.479002 -0.445066 0.0 
1.01226 -0.0463206 0.0 
0.771711 -0.083372 0.0 
1e-307 1e-307 0.0 
0.119762 -0.00314464 0.0 
0.999884 0.00114784 0.0 
0.161077 -0.00288586 0.0 
0.749786 -0.0518406 0.0 
0 0 0.0 
0.046029 -0.00707845 0.0 
1.00005 0.002252 0.0 
0.398315 -0.0305883 0.0 
0.356304 0.170811 0.0 
0.0701562 -0.00672625 0.0 
0.459379 -0.0129101 0.0 
1.00407 -0.00051426 0.0 
0.378046 -0.006989 0.0 
0.481247 0.0304617 0.0 
0.0200813 0.0346503 0.0 
0.266122 -0.0235909 0.0 
0.023129 -0.00191976 0.0 
1.0076 -0.00173804 0.0 
0.00868692 0.000827939 0.0 
0.370843 -0.04589 0.0 
0.874602 0.0152843 0.0 
0.463619 -0.00616345 0.0 
0.0307688 -5.19183e-05 0.0 
1.01732 -0.00704791 0.0 
0.593947 -0.345202 0.0 
0.868694 -0.0976343 0.0 
1.00183 0.00141629 0.0 
0.00532897 -5.40646e-05 0.0 
0.398865 0.022369 0.0 
0.222508 -0.0167224 0.0 
0 0 0.0 
0.948884 -0.0532838 0.0 
0.0914685 -0.00377731 0.0 
0.000200622 1.08815e-05 0.0 
0.227527 0.00235604 0.0 
0.777539 -0.0143945 0.0 
0.806502 0.250989 0.0 
0.992996 -0.00150091 0.0 
1.01015 0.101232 0.0 
1.00113 0.000798939 0.0 
-1.0968e-280 8.13868e-282 0.0 
0 0 0.0 
0.871646 -0.282033 0.0 
-1.77853e-226 -2.05711e-227 0.0 
0.0278383 -0.00182032 0.0 
0.844369 -0.00838549 0.0 
0.427001 -0.00315979 0.0 
1.00202 0.00364634 0.0 
0 0 0.0 
0.99996 -0.000526815 0.0 
0.640354 0.0900287 0.0 
9.94549e-07 -9.46596e-10 0.0 
0.565509 0.0362813 0.0 
0.812945 0.0789525 0.0 
0.122341 0.0116086 0.0 
0.939855 0.0764917 0.0 
0.390117 0.0348172 0.0 
0 0 0.0 
0.270181 -0.029736 0.0 
0.000125178 -5.87334e-06 0.0 
0.0540351 -0.00181944 0.0 
0.611501 -0.0207621 0.0 
3.26875e-06 2.10071e-07 0.0 
-3.65964e-147 3.66971e-148 0.0 
1.06301 -0.103752 0.0 
0.494142 -0.100215 0.0 
1.01071 0.00315484 0.0 
0.0148244 -0.00263609 0.0 
0.995001 0.00647119 0.0 
1.00791 0 0.0 
0 0 0.0 
0.682828 0.01343 0.0 
0.312406 0.267647 0.0 
0.0493292 -0.117203 0.0 
0.0110683 0.000361056 0.0 
0.801593 -0.120424 0.0 
-4.94881e-24 4.50668e-25 0.0 
0.901678 -0.0106082 0.0 
0.79293 0.34291 0.0 
1.00113 0.000543149 0.0 
1.01494 0.00806292 0.0 
0.586246 0.0716477 0.0 
0.475467 0.0421964 0.0 
1.00701 -0.00570974 0.0 
0.879334 -0.0353936 0.0 
0.742825 -0.0649639 0.0 
0.630548 -0.0745745 0.0 
1.06002 -0.0378365 0.0 
0.609437 0.317314 0.0 
0.104049 0.0219823 0.0 
0.50666 0.038345 0.0 
0.521913 0.0825887 0.0 
0.877326 0.171516 0.0 
0.0901258 0.00247315 0.0 
0.00822456 -0.000824056 0.0 
0 0 0.0 
1.01016 0.0063799 0.0 
1.00273 -0.0460398 0.0 
0 0 0.0 
0.655104 0.060546 0.0 
0 0 0.0 
0.00889692 0.000587141 0.0 
1.00004 -0.000131544 0.0 
0 0 0.0 
1.00412 -0.00193267 0.0 
0.993959 0.0531593 0.0 
0 0 0.0 
1.08441 0.205591 0.0 
1.01102 -0.00675083 0.0 
0.0135084 0.000895046 0.0 
0.187545 -0.0191032 0.0 
0.0999087 0.0112455 0.0 
0.999946 0.000365086 0.0 
1.08408 -0.184568 0.0 
1.0226 -0.185175 0.0 
0 0 0.0 
0 0 0.0 
0.00925112 5.62112e-05 0.0 
1.00261 0 0.0 
1.00795 -0.000482972 0.0 
0.19304 0.0113368 0.0 
0.182408 0.0243014 0.0 
0 0 0.0 
1.0079 -0.000478447 0.0 
0.0391338 0.000440093 0.0 
0.801153 -0.140004 0.0 
0.000123586 -1.80179e-05 0.0 
0.163348 -0.0165995 0.0 
0.965789 0.073296 0.0 
1e-307 1e-307 0.0 
0.196961 0.0267536 0.0 
0.0174192 -0.0384285 0.0 
0.354686 -0.0332812 0.0 
0.0970272 -0.00713155 0.0 
0.00648196 0.000242341 0.0 
0.0391302 -0.00283387 0.0 
0.760814 0.198689 0.0 
0.0122837 0.000142402 0.0 
-1.26416e-103 1.251e-104 0.0 
1.01082 0.0130581 0.0 
1.00219 0.00156301 0.0 
0.999026 -0.0106747 0.0 
1.03441 0.0176562 0.0 
0.510877 -7.46159e-05 0.0 
0.591009 0.0592065 0.0 
0 0 0.0 
0.35604 0.00366072 0.0 
0.0216676 -0.000455261 0.0 
0.0245829 -0.00164102 0.0 
1.08619 -0.166511 0.0 
0.00170026 -0.000119451 0.0 
0.999739 -8.04179e-06 0.0 
1.0324 -0.0391429 0.0 
1.0024 0.000667901 0.0 
1.00753 0.000562111 0.0 
1.00028 0.000343591 0.0 
0.00403554 -0.000445321 0.0 
0.0106316 0.000762069 0.0 
0.000498892 3.71359e-05 0.0 
0.999744 1.03685e-06 0.0 
1.90152e-60 -1.96233e-61 0.0 
0 0 0.0 
0.357944 -0.0271174 0.0 
0.400628 0.0343493 0.0 
0.0156485 -1.50667e-05 0.0 
0 0 0.0 
0.992132 -0.0547825 0.0 
0.505001 0.0113144 0.0 
0 0 0.0 
0 0 0.0 
0.79451 0.0104125 0.0 
0.707794 -0.376533 0.0 
0.267086 -0.0600516 0.0 
1.07446 -0.0984535 0.0 
0.015646 0.00116145 0.0 
1.00332 0.000384542 0.0 
1.05606 0.0036471 0.0 
0.016513 -0.000250616 0.0 
0.272433 0.0263357 0.0 
1.0129 -0.194316 0.0 
0.00567302 7.01865e-05 0.0 
0.656573 -0.284452 0.0 
0 0 0.0 
1.08505 0.170323 0.0 
1.00458 -0.00610121 0.0 
0.00467339 -0.00024798 0.0 
0.467859 0.0364028 0.0 
1.01509 -0.00558725 0.0 
0.999589 -1.37859e-06 0.0 
1.00487 0.00783702 0.0 
1.00809 -0.000206675 0.0 
0.715389 -0.266001 0.0 
1.00002 0.000487229 0.0 
1.02899 0.029318 0.0 
0.982477 -0.0253455 0.0 
1.00015 -0.004636 0.0 
0.875091 0.115762 0.0 
0 0 0.0 
0.0948426 -0.149786 0.0 
1.00045 0.00197345 0.0 
0 0 0.0 
0 0 0.0 
0.718331 0.338308 0.0 
0.525028 -0.0572456 0.0 
0.903159 -0.00940207 0.0 
0.649366 0.257843 0.0 
0.71345 0.272164 0.0 
0.44182 0.0100655 0.0 
0.0440845 -0.00329127 0.0 
0.00989514 0.000293012 0.0 
1.01071 0.00303305 0.0 
0.0315874 -0.0017912 0.0 
0 0 0.0 
0.769805 0.121364 0.0 
0.494389 0.0960552 0.0 
0.00620928 -0.0100552 0.0 
0.00509671 0.000390619 0.0 
0.211362 0.0141313 0.0 
0.000272541 6.15035e-05 0.0 
0.316278 -0.00546237 0.0 
0.867862 0.0331813 0.0 
0.456926 0.0252356 0.0 
0.999995 -0.000262179 0.0 
0.678308 0.242903 0.0 
9.33986e-39 -1.0613e-39 0.0 
0.310778 0.0217652 0.0 
1.00108 0 0.0 
1.00302 -0.000680943 0.0 
1.10554 0.130448 0.0 
0.711572 0.376595 0.0 
8.97618e-05 -2.95899e-06 0.0 
5.00377e-35 2.18946e-36 0.0 
0.254433 -0.00090484 0.0 
0 0 0.0 
2.42973e-06 -6.96659e-07 0.0 
0 0 0.0 
0.00778357 0.000519231 0.0 
0.729908 0.309306 0.0 
1.00034 -0.000253948 0.0 
0 0 0.0 
0.858734 0.153045 0.0 
0.00843187 -0.000398198 0.0 
0.843621 -0.0925326 0.0 
0.136225 0.00569084 0.0 
0.607872 -0.290324 0.0 
0.00119754 -0.000124222 0.0 
0 0 0.0 
1.01999 -0.251863 0.0 
0.00661234 -0.000981599 0.0 
0.00386112 -0.00062114 0.0 
0 0 0.0 
1.009 0.00238329 0.0 
0.0123825 0.000189473 0.0 
1.00179 -0.00259615 0.0 
0.553913 -0.063497 0.0 
0.538903 0.0996585 0.0 
1.00986 -0.00336905 0.0 
0 0 0.0 
2.82236e-05 1.23868e-06 0.0 
1.00983 -0.00368683 0.0 
0.482749 -0.0253776 0.0 
0.425089 -0.122087 0.0 
0.999739 -9.18534e-05 0.0 
0 0 0.0 
1.00062 0.000308401 0.0 
0.58055 -0.427724 0.0 
1.0004 0.000298637 0.0 
1.0003 0 0.0 
0.10132 -0.000945814 0.0 
0.449317 -0.0988758 0.0 
0.541785 -0.0325141 0.0 
3.07124e-06 2.78712e-07 0.0 
1.00301 0.00371288 0.0 
0.0233197 -1.43654e-05 0.0 
0.872556 0.086368 0.0 
0.7244 0.0546294 0.0 
0.878709 -0.13229 0.0 
0.0053162 -0.000756773 0.0 
0.0676045 -0.00120074 0.0 
0.783779 0.367034 0.0 
0.837354 0.139309 0.0 
3.78849e-18 1.76887e-19 0.0 
1.00914 0.000476262 0.0 
0 0 0.0 
0.497163 0.108393 0.0 
0.995292 0.00236867 0.0 
0 0 0.0 
-6.09471e-98 6.03128e-99 0.0 
0.471675 -0.0833765 0.0 
0.0570243 0.0185799 0.0 
1.01433 -0.00783608 0.0 
0.460487 -0.0432775 0.0 
1 0 0.0 
-1.69448e-248 1.25737e-249 0.0 
0.762168 0.372904 0.0 
0 0 0.0 
0 0 0.0 
1.00549 0.00856214 0.0 
0.198621 0.0106948 0.0 
1.0073 0.00188097 0.0 
0.0173973 0.00030591 0.0 
1.00899 0 0.0 
0.75051 0.278217 0.0 
0 0 0.0 
0.999748 1.80895e-05 0.0 
0.24732 -0.0045641 0.0 
1.00922 -0.00875286 0.0 
0.992401 -0.00863191 0.0 
0.151498 0.0182092 0.0 
1.01313 -0.00899855 0.0 
1.00402 0 0.0 
1.00773 0.00227341 0.0 
0.790981 0.319542 0.0 
0.0150306 -0.00396962 0.0 
1.00907 -0.00859346 0.0 
0.166869 0.0446182 0.0 
0.306051 0.0286666 0.0 
0.49049 -0.0494775 0.0 
0.772058 0.36477 0.0 
0.748029 0.0644654 0.0 
0 0 0.0 
1.00088 0.00235685 0.0 
0.865212 0.353407 0.0 
0.480018 0.179595 0.0 
0.490601 -0.171087 0.0 
0.817367 0.356542 0.0 
0.322207 0.0634497 0.0 
1.00859 -0.00691179 0.0 
0.943297 -0.335149 0.0 
0.573147 -0.061082 0.0 
0.745712 -0.0905114 0.0 
0.80571 -0.0816221 0.0 
1.00699 0.00513404 0.0 
0.00374 0.000164336 0.0 
0.145462 -0.019224 0.0 
0.326397 0.045064 0.0 
1.05239 0.102758 0.0 
0.971901 -0.0182589 0.0 
0 0 0.0 
0.00388211 -0.000363496 0.0 
0.292827 0.00225654 0.0 
0.106197 0.0193885 0.0 
0.999931 -0.000229249 0.0 
0 0 0.0 
0 0 0.0 
0.000727516 -3.96967e-05 0.0 
0.0474269 -0.00996918 0.0 
0.0790332 -0.0194187 0.0 
1.02608 -0.289718 0.0 
0.00701035 0.000663698 0.0 
0.412024 -0.00479452 0.0 
0.810988 0.127818 0.0 
1.00364 0.00317526 0.0 
0.570144 -0.27172 0.0 
0.227247 0.00871419 0.0 
0.453787 -0.0475565 0.0 
0.0378672 0.00192909 0.0 
0.131387 0.00855063 0.0 
0.852193 0.289937 0.0 
0.998866 0.000393808 0.0 
0.78129 0.137358 0.0 
0.00860361 0.000315472 0.0 
0.00771336 0.00079406 0.0 
1e-307 0 0.0 
0.0056124 0.000377654 0.0 
-8.69558e-82 -1.10542e-81 0.0 
0.800617 0.0742364 0.0 
1.00086 0 0.0 
0.0602292 -0.00278581 0.0 
0.695662 -0.44702 0.0 
0.768499 0.0885053 0.0 
0.000118996 -3.0722e-07 0.0 
0.00772767 0.000471293 0.0 
0 0 0.0 
0.216659 -0.00232905 0.0 
-4.44981e-85 3.59762e-86 0.0 
0.000199851 1.58947e-05 0.0 
0.771298 -0.288906 0.0 
0.231348 -0.102626 0.0 
0.260678 -0.0394636 0.0 
1.00247 -0.000590297 0.0 
0 0 0.0 
1.00217 0.00116082 0.0 
0.905495 0.0285629 0.0 
0.129112 0.0149141 0.0 
0 0 0.0 
0.994549 -0.000620191 0.0 
1.05767 0.182214 0.0 
0.860068 -0.142604 0.0 
0.0505874 0.00589304 0.0 
0.279756 0.0197111 0.0 
0.592355 0.0824012 0.0 
0.0443924 -0.0166758 0.0 
0.254324 -0.0132867 0.0 
0.00433989 -0.000568992 0.0 
0.00891391 -0.000940602 0.0 
0.345868 -0.022732 0.0 
0.0147171 0.000390076 0.0 
0 0 0.0 
4.10733e-08 1.76545e-09 0.0 
0.401217 -0.00351006 0.0 
-4.07961e-156 -4.35741e-159 0.0 
1.00538 0 0.0 
0.327821 -0.0215878 0.0 
0.011132 0.000623859 0.0 
0.86409 0.26015 0.0 
0.86464 0.0663432 0.0 
0 0 0.0 
0 0 0.0 
0.00392627 -0.000618002 0.0 
0.867194 0.0974036 0.0 
3.00238e-123 2.61879e-124 0.0 
9.37036e-182 -4.47035e-182 0.0 
1.02553 -0.0193977 0.0 
0 0 0.0 
0.892014 -0.299638 0.0 
0.0106662 0.000338051 0.0 
0.966956 0.306202 0.0 
0.235449 0.00627613 0.0 
0.933492 -0.0607775 0.0 
0.00691489 0.000252766 0.0 
0.390438 -0.0178846 0.0 
0.764153 0.306272 0.0 
0.019318 0.000311891 0.0 
0.0374241 0.00180234 0.0 
0 0 0.0 
0 0 0.0 
1.00867 -0.00972463 0.0 
0.0649761 -0.120435 0.0 
0.234379 7.27588e-05 0.0 
1.00689 -0.265818 0.0 
0.850614 -0.200887 0.0 
0.469219 -0.0095675 0.0 
0.0073387 0.000229629 0.0 
1.00051 0.00515252 0.0 
1.01855 -0.301577 0.0 
0.312354 -0.011647 0.0 
0.941286 -0.100957 0.0 
0.718044 0.359073 0.0 
0.00836196 0.000136769 0.0 
0.0872855 0.0120659 0.0 
0.355289 -0.00397857 0.0 
1.01212 -0.294369 0.0 
0.754122 0.220598 0.0 
0.238128 0.0190373 0.0 
1.00819 0.000130969 0.0 
0.867214 -0.0346595 0.0 
0.00142636 -0.000347253 0.0 
0.0746609 0.000103028 0.0 
1.97074e-26 9.20887e-28 0.0 
0.00761789 0.000644927 0.0 
0.867014 -0.052805 0.0 
0.999516 -0.000197664 0.0 
0.00523655 0.000691756 0.0 
0 0 0.0 
0.3223 0.0771512 0.0 
0.964968 0.0180013 0.0 
0 0 0.0 
0.130274 -0.00947017 0.0 
0.121976 0.0100274 0.0 
0.389337 -0.0399383 0.0 
5.83231e-08 -1.75482e-09 0.0 
1.01062 0.256585 0.0 
0.726717 -0.0648426 0.0 
0.999729 5.79758e-05 0.0 
0.000436592 -3.86743e-05 0.0 
0.999796 0.00107061 0.0 
0.759144 -0.104699 0.0 
1.05575 0.0954733 0.0 
0.173118 0.0131943 0.0 
0.55772 0.281283 0.0 
0.998621 6.83856e-05 0.0 
1.00796 0 0.0 
0.608299 -0.462652 0.0 
0.258638 -0.00108478 0.0 
0.00735669 0.000829845 0.0 
0.728537 0.192374 0.0 
0.0315869 0.0024117 0.0 
0.679726 0.20059 0.0 
1.00798 0 0.0 
1.09798 -0.104592 0.0 
0.181672 0.011762 0.0 
7.57172e-59 1.27637e-58 0.0 
0 0 0.0 
1.00925 0.00504297 0.0 
1.00174 0.0131242 0.0 
1.06159 0.220122 0.0 
1.00555 -0.00237781 0.0 
0 0 0.0 
1.03636 -0.2727 0.0 
0.0245209 -0.00205306 0.0 
0.00751178 0.000581482 0.0 
0 0 0.0 
0.192754 -0.0096314 0.0 
0.0372035 -0.0152896 0.0 
1.00252 0.00100496 0.0 
1.05089 0.0175854 0.0 
0.211467 -0.00217883 0.0 
0.0759962 -0.0105517 0.0 
0.446825 -0.0103316 0.0 
0.944949 -0.279201 0.0 
0.00848409 0.000559783 0.0 
0.999631 0.000133513 0.0 
0.00147203 7.4343e-05 0.0 
0.00536554 0.000550117 0.0 
0.207563 -0.020042 0.0 
1.00789 -0.0015796 0.0 
0.838899 0.301187 0.0 
0.998887 0.00059104 0.0 
1.00357 -0.00726033 0.0 
0.585189 -0.0715304 0.0 
0.200567 -0.0210088 0.0 
0.015144 0.00036321 0.0 
0.311068 0.138055 0.0 
8.10856e-14 -1.05203e-14 0.0 
4.43217e-06 2.30342e-06 0.0 
0.999746 4.49291e-06 0.0 
0 0 0.0 
1.08062 -0.0495985 0.0 
0.279677 -0.0324339 0.0 
0.183694 -0.237805 0.0 
0.00011214 -1.23914e-05 0.0 
0.999495 0.000121685 0.0 
0 0 0.0 
0.584496 0.345369 0.0 