<VTKFile type="UnstructuredGrid" version="0.1" byte_order="LittleEndian">
  <UnstructuredGrid>
    <Piece NumberOfPoints="13258" NumberOfCells="26355">
      <Points>
        <DataArray type = "Float64" NumberOfComponents="3" format="ascii">
0 0 0.0 
14 0 0.0 
14 8 0.0 
0 8 0.0 
4.16782 4.09801 0.0 
4.52419 4.08255 0.0 
4.47987 4.0667 0.0 
4.74409 3.97039 0.0 
4.10514 4.06495 0.0 
4.94281 4.27337 0.0 
4.21772 4.0805 0.0 
4.70304 4.03591 0.0 
4.33592 4.0755 0.0 
4.20715 3.97737 0.0 
4.08897 4.02831 0.0 
5.37491 4.46915 0.0 
4.04003 3.97377 0.0 
3.96554 4.00011 0.0 
4.55635 3.9776 0.0 
3.91416 3.85383 0.0 
4.9741 3.99737 0.0 
4.40854 4.09237 0.0 
4.09201 3.95624 0.0 
5.70085 3.85517 0.0 
4.01323 3.99894 0.0 
4.06236 3.97371 0.0 
4.25007 4.10489 0.0 
4.31296 4.05832 0.0 
4.42002 4.03741 0.0 
4.88556 4.0211 0.0 
5.05801 3.99985 0.0 
4.00962 4.08349 0.0 
4.85414 4.02676 0.0 
4.69635 3.98437 0.0 
4.3826 3.93601 0.0 
4.53892 3.97677 0.0 
4.01036 4.01517 0.0 
4.18617 4.03624 0.0 
4.01799 3.98081 0.0 
4.45692 4.0552 0.0 
4.41088 3.95746 0.0 
4.34508 4.08154 0.0 
4.17759 3.97818 0.0 
4.3192 4.05771 0.0 
4.09533 4.03459 0.0 
4.00922 3.99881 0.0 
4.22991 3.96451 0.0 
5.13004 3.98354 0.0 
9.42596 7.54773 0.0 
4.36731 4.05544 0.0 
4.36086 4.07362 0.0 
4.40039 4.08542 0.0 
5.16321 3.91641 0.0 
3.93682 3.99751 0.0 
4.11094 4.03801 0.0 
4.12313 3.96769 0.0 
4.08775 3.93171 0.0 
4.0806 4.08505 0.0 
4.35276 4.07467 0.0 
5.03271 4.01187 0.0 
4.39711 4.07713 0.0 
4.85788 3.96102 0.0 
4.56694 4.04774 0.0 
5.30202 4.52847 0.0 
4.24594 3.96779 0.0 
4.39995 4.07071 0.0 
3.9464 4.01382 0.0 
4.42617 3.97237 0.0 
4.25755 3.96649 0.0 
4.61518 3.97881 0.0 
4.96467 4.01773 0.0 
4.10445 4.07203 0.0 
4.19351 4.07858 0.0 
4.96169 4.01992 0.0 
4.96507 4.02144 0.0 
4.28926 3.9583 0.0 
4.88983 4.02209 0.0 
4.04592 3.97223 0.0 
4.01647 3.99236 0.0 
4.23122 3.96207 0.0 
4.43088 3.99724 0.0 
4.70361 4.05069 0.0 
4.24845 4.07301 0.0 
4.66841 4.06217 0.0 
4.11961 3.95973 0.0 
0 6.15459 0.0 
4.0192 3.99331 0.0 
3.87322 3.99102 0.0 
4.39505 4.09399 0.0 
4.73927 3.98664 0.0 
4.97586 4.02633 0.0 
4.83909 3.9832 0.0 
5.00785 4.00312 0.0 
10.8833 7.73481 0.0 
4.07543 3.96017 0.0 
4.42074 4.07367 0.0 
14 6.11123 0.0 
4.17782 3.95315 0.0 
3.99379 4.00703 0.0 
3.96293 3.99513 0.0 
4.37093 4.06777 0.0 
4.08554 4.04628 0.0 
4.94773 4.01175 0.0 
4.64402 4.05156 0.0 
4.14864 4.04153 0.0 
4.21452 4.09342 0.0 
3.88293 4.06948 0.0 
4.19866 4.06312 0.0 
5.06381 4.03437 0.0 
4.23788 4.086 0.0 
4.6188 3.97266 0.0 
4.62443 4.18143 0.0 
5.03684 4.01469 0.0 
5.31699 4.22179 0.0 
4.40847 4.07201 0.0 
4.01927 3.97989 0.0 
4.16933 4.0613 0.0 
3.95965 3.9291 0.0 
4.27964 3.95178 0.0 
4.60139 3.96832 0.0 
14 5.21618 0.0 
3.88655 3.87755 0.0 
4.1119 3.93738 0.0 
7.69986 0 0.0 
4.20971 4.06895 0.0 
4.28749 4.07809 0.0 
3.94943 3.96456 0.0 
4.21636 3.96738 0.0 
4.00381 4.03411 0.0 
4.76605 3.98741 0.0 
4.82342 3.9895 0.0 
4.01965 4.03223 0.0 
4.30997 4.04963 0.0 
4.10252 3.95063 0.0 
4.0152 4.00142 0.0 
4.2868 4.07122 0.0 
4.63526 3.9811 0.0 
4.74533 5.42688 0.0 
4.20746 4.07011 0.0 
4.70971 3.98464 0.0 
4.96224 3.99748 0.0 
10.6684 7.55729 0.0 
4.81084 4.0108 0.0 
4.20488 4.08602 0.0 
3.05817 4.59047 0.0 
4.8068 3.97354 0.0 
4.88612 4.00757 0.0 
4.34604 4.08406 0.0 
4.37798 8 0.0 
4.12623 4.0709 0.0 
4.08373 4.05666 0.0 
4.09568 4.05562 0.0 
3.99883 4.00817 0.0 
4.33046 3.95323 0.0 
4.27852 0 0.0 
4.69336 3.9837 0.0 
4.29262 4.07791 0.0 
4.40427 3.95583 0.0 
4.6521 4.06072 0.0 
4.66177 4.05123 0.0 
4.85207 3.96575 0.0 
4.80709 3.95547 0.0 
4.76211 3.9869 0.0 
4.4204 4.0686 0.0 
4.70266 8 0.0 
4.86153 4.0304 0.0 
5.04849 4.04312 0.0 
4.00955 3.98517 0.0 
3.99355 3.9371 0.0 
4.2593 4.09637 0.0 
4.13425 4.07811 0.0 
4.00418 3.99483 0.0 
4.27089 4.06512 0.0 
4.01864 3.98435 0.0 
5.11295 3.90338 0.0 
4.1741 4.07586 0.0 
4.61271 3.96406 0.0 
4.19763 3.93666 0.0 
4.89032 4.03847 0.0 
4.36361 3.95658 0.0 
4.09782 3.95912 0.0 
4.88335 4.02193 0.0 
4.61414 3.96129 0.0 
4.55668 4.05035 0.0 
3.91267 2.38613 0.0 
4.32429 4.08681 0.0 
4.02873 4.0411 0.0 
5.4937 4.72035 0.0 
4.39542 4.06961 0.0 
4.29787 4.08601 0.0 
4.08859 4.05676 0.0 
4.04324 3.98528 0.0 
4.17837 4.06087 0.0 
4.30615 3.96016 0.0 
4.24552 4.07113 0.0 
4.12124 3.98374 0.0 
4.21971 3.98354 0.0 
4.25101 3.95498 0.0 
4.08226 3.93581 0.0 
4.17912 4.05461 0.0 
4.42806 3.96693 0.0 
4.04836 4.00644 0.0 
4.71079 3.97681 0.0 
3.86206 4.07519 0.0 
4.80763 4.01474 0.0 
4.08008 3.9656 0.0 
4.15325 4.0397 0.0 
4.1829 4.06659 0.0 
4.12635 4.07409 0.0 
0 1.4212 0.0 
4.57802 3.96133 0.0 
4.8762 4.04179 0.0 
4.18679 4.08465 0.0 
4.71607 4.04349 0.0 
4.0637 4.03669 0.0 
4.17387 3.99146 0.0 
4.57871 4.08069 0.0 
4.01757 4.01026 0.0 
4.25777 4.07923 0.0 
4.99459 4.03862 0.0 
4.96808 4.01909 0.0 
4.5898 3.96049 0.0 
4.0644 3.93891 0.0 
4.33589 3.95158 0.0 
4.16503 4.11076 0.0 
4.26548 4.05787 0.0 
4.33724 3.96947 0.0 
4.31479 2.21182 0.0 
4.19206 3.91938 0.0 
4.45482 4.06616 0.0 
3.96023 4.01528 0.0 
4.09641 3.95124 0.0 
4.12454 3.92729 0.0 
4.32616 4.09061 0.0 
4.08491 4.0641 0.0 
3.96293 4.03138 0.0 
4.18617 3.96595 0.0 
4.06298 3.99231 0.0 
4.21022 3.93613 0.0 
4.19366 3.95089 0.0 
3.97661 4.05846 0.0 
4.21125 3.95113 0.0 
3.99252 4.00665 0.0 
6.1491 4.01137 0.0 
4.17636 4.06982 0.0 
4.01378 4.004 0.0 
4.73517 4.04352 0.0 
3.94066 3.96869 0.0 
4.82161 4.0142 0.0 
4.35865 3.98301 0.0 
3.95819 3.97698 0.0 
4.05096 4.01373 0.0 
4.06902 3.98443 0.0 
4.91576 4.00417 0.0 
4.55958 4.05269 0.0 
4.54783 4.09596 0.0 
4.15636 4.04974 0.0 
3.95778 3.98461 0.0 
4.05286 3.93495 0.0 
3.9419 3.97853 0.0 
4.38248 4.11294 0.0 
4.19018 4.05306 0.0 
0.581222 4.47888 0.0 
4.10081 3.94382 0.0 
4.07307 3.94777 0.0 
4.69463 4.07217 0.0 
4.18964 3.9825 0.0 
4.84596 3.99183 0.0 
4.16733 4.07556 0.0 
4.7206 3.9822 0.0 
5.06181 4.09078 0.0 
4.00665 4.01216 0.0 
3.99342 4.00186 0.0 
3.9771 4.03148 0.0 
4.06336 4.08174 0.0 
4.71626 4.0792 0.0 
4.7894 3.98843 0.0 
4.15561 4.10177 0.0 
4.18309 4.12442 0.0 
3.96476 4.03852 0.0 
4.00817 4.01392 0.0 
4.18744 4.07562 0.0 
4.40321 4.05392 0.0 
4.00418 4.00381 0.0 
3.96822 4.02719 0.0 
3.97233 4.04194 0.0 
3.98573 3.91699 0.0 
4.00326 3.99438 0.0 
4.88103 4.0073 0.0 
3.99865 3.97733 0.0 
5.00366 4.02223 0.0 
4.20876 3.92492 0.0 
3.92251 4.00785 0.0 
4.36559 3.96956 0.0 
4.22899 4.0812 0.0 
3.32442 3.37707 0.0 
4.47111 4.06679 0.0 
4.30498 3.95249 0.0 
4.3849 4.08353 0.0 
3.8769 4.36415 0.0 
3.94576 4.12556 0.0 
4.48945 3.97653 0.0 
4.30838 4.04221 0.0 
3.94564 3.99975 0.0 
4.39174 4.08409 0.0 
4.52015 3.95926 0.0 
4.49648 4.1021 0.0 
5.69649 4.5821 0.0 
5.0401 4.02083 0.0 
4.98371 4.01321 0.0 
4.35255 4.06175 0.0 
12.0984 8 0.0 
4.52064 4.08001 0.0 
3.8452 4.14775 0.0 
4.97402 4.14544 0.0 
4.38914 4.13623 0.0 
3.92866 4.03401 0.0 
11.7013 4.10211 0.0 
4.5246 3.95669 0.0 
4.23987 3.99243 0.0 
4.23154 4.07931 0.0 
4.05348 4.07845 0.0 
4.1384 3.95607 0.0 
4.92912 3.84539 0.0 
4.70301 3.82541 0.0 
4.5533 4.04791 0.0 
5.08763 4.02599 0.0 
4.36894 4.08372 0.0 
0.584774 1.3012 0.0 
10.8355 3.51217 0.0 
4.05408 3.9411 0.0 
5.45994 5.20536 0.0 
5.03102 3.94609 0.0 
4.02341 4.03456 0.0 
5.05262 3.9574 0.0 
4.52724 7.41561 0.0 
5.05919 4.01855 0.0 
4.22973 3.95422 0.0 
4.55513 4.04031 0.0 
4.12681 4.04136 0.0 
5.06689 3.97688 0.0 
5.26168 3.76714 0.0 
4.14581 4.04395 0.0 
4.02777 4.06274 0.0 
4.25641 4.04704 0.0 
5.37622 3.893 0.0 
4.93528 6.22208 0.0 
4.23001 4.06642 0.0 
4.32795 4.06978 0.0 
3.91308 3.93643 0.0 
4.68551 3.98197 0.0 
1.24078 0.550265 0.0 
4.42633 4.06867 0.0 
4.02392 3.98109 0.0 
4.13046 3.96942 0.0 
13.3549 8 0.0 
2.38032 0.204862 0.0 
5.07536 3.9647 0.0 
9.1005 7.43296 0.0 
4.87081 3.99098 0.0 
4.4175 4.06911 0.0 
4.86064 4.02406 0.0 
4.84919 4.03789 0.0 
4.56598 4.0601 0.0 
4.70122 3.97739 0.0 
4.03474 4.00368 0.0 
4.01517 4.03055 0.0 
4.26022 3.94165 0.0 
4.04734 4.04874 0.0 
4.36563 4.07339 0.0 
4.29178 4.03826 0.0 
4.02246 4.02836 0.0 
4.66275 3.98298 0.0 
3.99908 3.98836 0.0 
3.97727 3.94993 0.0 
4.12151 3.94609 0.0 
5.14043 4.17282 0.0 
4.01744 4.0121 0.0 
4.59564 3.96541 0.0 
4.0339 4.05256 0.0 
4.33894 4.08186 0.0 
3.99922 3.99464 0.0 
4.06128 3.97127 0.0 
0.357238 7.56402 0.0 
4.97222 4.02124 0.0 
4.13366 3.9572 0.0 
4.88044 0 0.0 
4.02651 3.98657 0.0 
4.44112 3.92358 0.0 
4.35005 4.09252 0.0 
4.2163 3.94824 0.0 
4.06234 3.9498 0.0 
4.22957 3.95099 0.0 
4.03295 3.99414 0.0 
4.12589 3.95744 0.0 
4.27301 4.09229 0.0 
4.99093 4.01037 0.0 
4.02231 3.98111 0.0 
3.83194 4.08087 0.0 
4.21355 3.98022 0.0 
4.32956 3.96826 0.0 
4.58309 3.97748 0.0 
4.28891 4.06302 0.0 
2.53508 4.64206 0.0 
4.8258 4.05197 0.0 
5.12351 4.04488 0.0 
4.12408 3.94161 0.0 
4.29226 4.09769 0.0 
4.07182 4.04517 0.0 
4.26004 3.94534 0.0 
5.0068 4.01045 0.0 
5.04726 4.00417 0.0 
4.45059 4.06741 0.0 
3.90836 3.898 0.0 
4.63855 3.97769 0.0 
4.71275 3.98571 0.0 
5.1855 4.1465 0.0 
4.23759 4.08946 0.0 
4.66775 4.07119 0.0 
5.19308 3.8752 0.0 
4.06515 4.02489 0.0 
4.07858 3.96721 0.0 
4.8939 4.16656 0.0 
4.33353 4.07006 0.0 
4.09033 4.05488 0.0 
4.64798 3.98092 0.0 
5.12509 4.06021 0.0 
4.22096 4.06328 0.0 
5.34789 4.15514 0.0 
4.81187 4.05148 0.0 
4.04195 3.99898 0.0 
4.36279 4.07512 0.0 
4.51983 4.11882 0.0 
4.255 4.06007 0.0 
5.02743 4.11084 0.0 
4.48128 4.05302 0.0 
4.30661 4.08755 0.0 
4.30211 3.98484 0.0 
4.20201 4.06584 0.0 
4.9368 3.96053 0.0 
4.17983 4.0788 0.0 
4.04521 4.03344 0.0 
3.97168 3.87852 0.0 
6.35406 2.45882 0.0 
4.2489 4.09629 0.0 
4.18532 3.96484 0.0 
3.68345 1.80588 0.0 
5.06347 3.99507 0.0 
4.30242 3.94915 0.0 
4.32398 4.05563 0.0 
5.08198 4.04957 0.0 
4.48501 4.07338 0.0 
5.02947 4.00625 0.0 
4.58196 4.03482 0.0 
4.01185 3.98713 0.0 
3.94409 3.86409 0.0 
4.44092 3.95075 0.0 
4.4138 3.93988 0.0 
6.91256 3.08935 0.0 
4.47385 4.11396 0.0 
4.2589 4.07332 0.0 
3.91833 4.06784 0.0 
4.0062 4.04545 0.0 
4.07401 3.9833 0.0 
3.99883 4.01382 0.0 
4.00158 4.00435 0.0 
4.68281 3.98239 0.0 
4.08942 3.95104 0.0 
4.22944 4.07705 0.0 
4.63784 4.05343 0.0 
4.03059 3.99519 0.0 
4.01165 4.04753 0.0 
4.46633 3.9736 0.0 
4.25031 3.96566 0.0 
[...]
<PointData>
  <DataArray type = "Float64" Name="Vitesse" NumberOfComponents="3" format="ascii">
1 0 0.0 
1.00013 0 0.0 
0.999915 0 0.0 
1 0 0.0 
1.03326 0.172729 0.0 
0.309353 -0.0133388 0.0 
0.0346425 -0.00168705 0.0 
0.166406 0.00716758 0.0 
0.701813 0.165232 0.0 
1.06245 -0.0417614 0.0 
0.534856 0.0561783 0.0 
2.43844e-54 -2.2101e-55 0.0 
0.159887 0.00279091 0.0 
2.36796e-189 1.236e-191 0.0 
-2.61254e-297 -7.04206e-299 0.0 
1.03701 -3.56169e-05 0.0 
0.300369 -0.0729557 0.0 
0.646407 -0.0607509 0.0 
0.00592497 0.000823136 0.0 
0.940375 -0.0966399 0.0 
0.00553794 0.000437081 0.0 
0.489697 0.00128769 0.0 
0.61421 -0.0802871 0.0 
0.856735 0.011078 0.0 
-5.9817e-294 3.43958e-294 0.0 
0.0500664 -0.00704316 0.0 
0.955154 0.0973721 0.0 
-2.47732e-293 2.82083e-295 0.0 
1.80841e-200 2.17648e-202 0.0 
0.00305052 -0.000445528 0.0 
0.112316 0.0127396 0.0 
0.880709 0.242021 0.0 
0.00736307 -0.000888069 0.0 
0.00120816 7.14904e-05 0.0 
0.575153 0.0018186 0.0 
0.00768196 0.000697769 0.0 
-4.83203e-32 -2.61186e-32 0.0 
1.35919e-244 1.18587e-245 0.0 
0.340275 -0.146892 0.0 
-6.15474e-58 -1.71763e-59 0.0 
0.220009 0.00536722 0.0 
0.297386 0.00370796 0.0 
-5.3527e-288 -3.34432e-289 0.0 
-1.92877e-291 2.395e-293 0.0 
-9.93299e-295 -2.67742e-296 0.0 
-6.95063e-291 7.52244e-291 0.0 
0.0706571 -0.000587769 0.0 
0.257307 0.0251955 0.0 
1.00044 -0.0002368 0.0 
-1.87817e-285 1.36933e-286 0.0 
0.110217 0.00231682 0.0 
0.352261 -0.000271737 0.0 
0.742007 0.0386613 0.0 
0.763685 -0.0407935 0.0 
-9.80158e-299 -1.0188e-299 0.0 
0.0453546 -0.000731904 0.0 
1.0731 -0.186202 0.0 
1.01965 0.271996 0.0 
0.132968 -0.000322552 0.0 
0.0688617 -0.00527694 0.0 
0.183065 -0.000924912 0.0 
0.30942 0.0139771 0.0 
-7.84661e-164 4.73432e-165 0.0 
1.03289 -0.00817869 0.0 
0.00306962 4.88017e-05 0.0 
0.0553121 -0.000261367 0.0 
0.732149 0.00633826 0.0 
0.00613333 0.000248 0.0 
0.033029 0.00103908 0.0 
0.0212491 0.000570189 0.0 
0.0328958 -0.00500215 0.0 
0.884028 0.213068 0.0 
0.576733 0.0745298 0.0 
0.0405442 -0.00599349 0.0 
0.0498652 -0.007367 0.0 
0.194833 0.00114577 0.0 
0.00927954 -0.00135058 0.0 
0.308766 -0.062946 0.0 
-4.16149e-293 2.39292e-293 0.0 
0.12452 -0.000122781 0.0 
-8.38554e-150 -7.32845e-151 0.0 
0.0472744 -0.00458994 0.0 
0.214786 0.017252 0.0 
0.129355 -0.0112462 0.0 
0.346203 -0.0294819 0.0 
1 0 0.0 
-3.45457e-293 1.98643e-293 0.0 
0.861421 -0.0228028 0.0 
0.530171 0.00491815 0.0 
0.00234469 0.000215914 0.0 
0.0835532 -0.0127235 0.0 
0.0780367 0.00363512 0.0 
0.0262585 -0.00155306 0.0 
1.00004 -3.79396e-05 0.0 
0.584769 -0.095743 0.0 
0.11844 -0.00261718 0.0 
0.999921 -3.37599e-06 0.0 
0.396688 -0.016187 0.0 
0.252856 0.0677687 0.0 
0.671485 -0.0843414 0.0 
-7.46582e-24 -2.66824e-25 0.0 
0.113178 0.0276714 0.0 
0.00431307 -0.00059136 0.0 
5.40115e-05 -5.19813e-06 0.0 
1.42661e-226 1.24469e-227 0.0 
0.858091 0.104573 0.0 
0.869756 0.0481613 0.0 
0.0347007 0.00311951 0.0 
0.207212 -0.028853 0.0 
0.614998 0.0579718 0.0 
0.0911595 0.00401566 0.0 
1.10475 -0.0162203 0.0 
0.0798466 -0.00819128 0.0 
0.990054 -0.0185501 0.0 
0.0828642 -0.00178683 0.0 
0.371983 -0.146166 0.0 
0.092128 0.0118253 0.0 
0.87439 -0.16442 0.0 
0.328109 -0.000603632 0.0 
0.134114 0.00555415 0.0 
0.999935 9.60519e-06 0.0 
0.922382 -0.08216 0.0 
0.985213 -0.133412 0.0 
1.00315 0 0.0 
0.197759 0.0180308 0.0 
0.279496 0.0112969 0.0 
0.794935 -0.13287 0.0 
0.000461696 5.12582e-07 0.0 
0.676824 0.351477 0.0 
0.00467332 0.000246618 0.0 
0.0120004 0.000492659 0.0 
0.594908 0.309482 0.0 
-2.44445e-255 -9.14447e-257 0.0 
0.736541 -0.0929375 0.0 
-2.43095e-294 1.39786e-294 0.0 
0.0929448 -0.00169037 0.0 
0.00651893 0.00032122 0.0 
1.02027 0.00198613 0.0 
0.246236 0.0251054 0.0 
0.00777475 0.00114982 0.0 
0.00141826 -8.58902e-05 0.0 
1.00006 -7.82682e-05 0.0 
2.30968e-236 -4.55519e-237 0.0 
0.730742 0.0916878 0.0 
0.990635 0.0105029 0.0 
0.158576 0.00736816 0.0 
-7.16374e-109 1.12655e-109 0.0 
0.35541 0.00608627 0.0 
1.00677 0 0.0 
0.724562 0.146249 0.0 
0.618064 0.165231 0.0 
0.445285 0.109121 0.0 
0.135334 0.142008 0.0 
0.286194 0.00345449 0.0 
1.00592 0 0.0 
0.00809143 0.00071716 0.0 
0.264954 0.0112747 0.0 
0.244759 0.0054594 0.0 
0.100186 -0.00887331 0.0 
0.0154891 -0.000834004 0.0 
0.258053 0.0118157 0.0 
0.349088 0.0142956 0.0 
0.00841549 0.00054459 0.0 
0.0229541 -0.000541076 0.0 
1.00697 0 0.0 
0.0298007 -0.00394648 0.0 
0.256921 -0.0369454 0.0 
0.330793 -0.205505 0.0 
0.901046 -0.244535 0.0 
0.794025 0.0704432 0.0 
0.857492 0.169812 0.0 
3.95139e-191 -2.58929e-191 0.0 
1.01459e-17 3.12793e-19 0.0 
7.19832e-07 -3.86644e-07 0.0 
0.824712 0.0410363 0.0 
0.587573 0.0834327 0.0 
0.189383 0.00748553 0.0 
0.759041 -0.0413494 0.0 
0.0977957 -0.0119672 0.0 
0.226882 0.00439194 0.0 
0.46829 -0.0511928 0.0 
0.00478091 -0.000716109 0.0 
0.223486 0.00850346 0.0 
-5.59341e-165 8.23399e-167 0.0 
1.00821 -0.00888871 0.0 
0.446332 0.016689 0.0 
0.736094 0.330356 0.0 
1.03003 -0.0130602 0.0 
0.0320846 -0.00129419 0.0 
0.468094 0.0245914 0.0 
0.568431 0.147421 0.0 
1.75474e-209 -3.03802e-210 0.0 
0.0399007 0.00319143 0.0 
0.158875 0.00243422 0.0 
0.16504 0.0137762 0.0 
-9.59616e-288 5.22046e-289 0.0 
-3.17549e-174 -3.82745e-175 0.0 
0.273942 -0.00135864 0.0 
1.06288 -0.192914 0.0 
-4.05113e-280 -3.47277e-281 0.0 
0.0835892 0.00235362 0.0 
-9.4899e-306 3.4156e-306 0.0 
0.0856839 0.00442924 0.0 
0.885398 0.0415027 0.0 
-5.84837e-92 3.34559e-93 0.0 
0.310528 -0.0418237 0.0 
7.43421e-229 6.48622e-230 0.0 
0.226218 0.0255316 0.0 
0.808243 0.166335 0.0 
1 0 0.0 
0.211137 0.0078672 0.0 
0.110977 -0.0130905 0.0 
0.767506 0.107675 0.0 
4.92703e-05 -3.13861e-06 0.0 
-1.11823e-22 -3.04898e-23 0.0 
-1.37083e-249 -3.03372e-251 0.0 
0.30527 -0.0169112 0.0 
-4.57939e-298 -2.24488e-298 0.0 
0.37455 0.0279137 0.0 
0.18006 -0.027179 0.0 
0.0408403 -0.00621875 0.0 
0.225269 0.00832741 0.0 
1.06138 -0.228157 0.0 
0.315648 0.00348683 0.0 
1.09336 0.184665 0.0 
-2.12709e-57 -1.46503e-58 0.0 
0.00939107 0.000393653 0.0 
1.011 -0.0057685 0.0 
1.0195 -0.0772687 0.0 
0.0110728 -0.000186699 0.0 
0.678389 0.0230893 0.0 
0.75319 -0.101838 0.0 
1.05532 -0.134253 0.0 
0.532668 0.0212772 0.0 
0.829476 0.226771 0.0 
0.706805 0.0942431 0.0 
0.0467761 0.000528335 0.0 
4.71561e-307 -6.05203e-308 0.0 
0.745058 -0.0361962 0.0 
0.428886 -0.0155485 0.0 
0.780408 0.182628 0.0 
0.398164 -0.0103905 0.0 
0.283128 0.0438194 0.0 
0.764245 -0.00493351 0.0 
0.376159 0.0481675 0.0 
-1.06007e-296 6.08244e-297 0.0 
0.0166603 -0.00201985 0.0 
0.798009 -0.107854 0.0 
-4.04854e-88 2.31598e-89 0.0 
1.34684e-63 1.51642e-64 0.0 
0.743348 -0.136917 0.0 
-8.43349e-301 -3.2422e-301 0.0 
-1.18076e-288 2.31236e-289 0.0 
-8.7918e-93 -4.68591e-94 0.0 
8.58592e-79 -2.90694e-80 0.0 
0.529666 -0.0190194 0.0 
2.50054e-186 2.20534e-187 0.0 
0.720568 -0.114369 0.0 
1.05592 -0.24595 0.0 
0.775761 -0.0927827 0.0 
0.873257 0.0274265 0.0 
-6.94218e-294 -1.2243e-294 0.0 
0.999841 0.000553974 0.0 
0.915428 -0.131441 0.0 
0.965178 -0.186522 0.0 
0.263108 -0.0209276 0.0 
-1.57001e-242 -3.4745e-244 0.0 
-4.62784e-13 -3.07952e-14 0.0 
0.614307 0.0916802 0.0 
0.0359797 0.00111161 0.0 
0.665268 -0.0692735 0.0 
6.6475e-15 5.76382e-15 0.0 
0.232325 -0.102014 0.0 
0.661713 0.153419 0.0 
0.992489 0.286208 0.0 
0.362737 -0.027182 0.0 
0.00667401 0.000848965 0.0 
1.06989 0.191577 0.0 
1.10814 0.167403 0.0 
0.724081 0.119589 0.0 
-1.90908e-43 -9.92642e-44 0.0 
0.513335 0.0673707 0.0 
6.83802e-200 6.95126e-202 0.0 
-2.00311e-139 -2.34019e-139 0.0 
0.673637 0.0976742 0.0 
0.721604 0.15424 0.0 
0.920159 -0.196291 0.0 
-3.48671e-27 2.86891e-27 0.0 
-3.38229e-109 4.97143e-110 0.0 
0.727972 -0.432918 0.0 
0.079717 -0.0193326 0.0 
0.93519 -0.0569635 0.0 
0.793108 -0.0122536 0.0 
0.0203088 0.00152804 0.0 
0.513266 0.0485239 0.0 
0.991947 -0.0150562 0.0 
0.0283729 -0.00245928 0.0 
0.305424 0.00134266 0.0 
0.317797 -7.7615e-05 0.0 
0.983871 0.0613606 0.0 
0.898713 0.122653 0.0 
1.77808e-07 2.72648e-08 0.0 
-1.73834e-257 -6.50296e-259 0.0 
0.736684 -0.0411549 0.0 
0.327076 7.3142e-05 0.0 
0.220813 0.00719268 0.0 
0.631164 -0.0112703 0.0 
1.06044 -0.00931421 0.0 
0.104701 -0.0153382 0.0 
0.0269139 -0.00524825 0.0 
2.64817e-207 -1.08281e-208 0.0 
0.999951 0 0.0 
0.267094 -0.0120544 0.0 
0.92287 0.0587346 0.0 
0.98443 -0.065891 0.0 
1.07943 0.042731 0.0 
0.793699 0.0420627 0.0 
0.999836 0.000157673 0.0 
0.256877 0.00789848 0.0 
-2.87739e-171 -2.51467e-172 0.0 
0.449892 0.0403282 0.0 
0.971735 0.294527 0.0 
0.404335 -0.0261984 0.0 
1.05084 0.0222788 0.0 
1.07205 0.00585693 0.0 
2.71509e-181 3.2689e-183 0.0 
0.184592 -0.0191911 0.0 
0.331161 0.00289651 0.0 
1.00006 -0.000390187 0.0 
0.999773 0.00037131 0.0 
1.05482 -0.250671 0.0 
1.01852 -0.0120896 0.0 
0.519222 0.0422934 0.0 
0.6137 0.304495 0.0 
0.421857 0.042463 0.0 
1.00721 0.000367152 0.0 
0.118856 -0.0105016 0.0 
0.304224 -0.00332151 0.0 
3.68989e-181 -2.02793e-182 0.0 
1.50183e-239 1.31032e-240 0.0 
0.25701 0.0338826 0.0 
1.03313 -0.00362699 0.0 
3.10907e-226 2.71261e-227 0.0 
0.889863 0.32198 0.0 
-6.8901e-301 -5.59145e-302 0.0 
0.811185 0.0143369 0.0 
1.01153 6.35339e-08 0.0 
0.05598 0.00492352 0.0 
0.0245586 0.000135347 0.0 
0.868877 -0.0928126 0.0 
0.0213519 0.00112814 0.0 
1.00045 -0.000432593 0.0 
0.0281933 -0.000934445 0.0 
0.11668 -0.0363357 0.0 
2.05282e-05 -2.11227e-06 0.0 
0.999921 0 0.0 
1.00216 -0.00042563 0.0 
0.364645 0.0397293 0.0 
1.0006 -0.000382362 0.0 
0.0190107 0.00153539 0.0 
0.0316046 1.88726e-05 0.0 
3.67532e-05 -3.83882e-06 0.0 
0.0647928 -0.00776433 0.0 
0.0200655 -0.000611781 0.0 
0.0758505 0.00410415 0.0 
-5.42518e-300 -1.92065e-300 0.0 
0.605571 0.33662 0.0 
0.554794 -0.0109311 0.0 
0.750929 0.275142 0.0 
0.104415 0.001348 0.0 
-2.03885e-260 -7.62713e-262 0.0 
0.360104 0.184359 0.0 
0.000560831 4.92264e-05 0.0 
0.480511 -0.447976 0.0 
0.835391 -0.22386 0.0 
0.772113 -0.0837825 0.0 
1.00116 -0.0555278 0.0 
-2.5292e-294 -1.24715e-294 0.0 
0.166652 0.00666212 0.0 
0.868785 0.344896 0.0 
0.310868 0.00620205 0.0 
0.198855 -0.295688 0.0 
0.178976 -0.0248438 0.0 
1.00006 0.000129876 0.0 
0.0536503 -0.00823065 0.0 
0.382232 -0.0255905 0.0 
1.00649 0 0.0 
-3.78023e-27 1.4882e-27 0.0 
0.734539 0.00236682 0.0 
0.542524 0.014517 0.0 
0.461649 -0.0127108 0.0 
0.977864 -0.213226 0.0 
0.379923 -0.00625798 0.0 
-3.25018e-297 1.40203e-297 0.0 
0.402245 -0.031388 0.0 
0.673592 0.0511437 0.0 
0.0222594 -0.00575311 0.0 
0.16108 -0.0524659 0.0 
0.902053 0.0336049 0.0 
1.70186e-153 8.98284e-155 0.0 
0.0240075 0.00199714 0.0 
0.0205026 0.000921137 0.0 
-2.5694e-57 -1.80401e-58 0.0 
0.995595 0.00557568 0.0 
0.153962 -0.0162533 0.0 
0.342779 -0.0400715 0.0 
0.869276 -0.0977262 0.0 
0.747242 0.0503954 0.0 
0.255431 0.071925 0.0 
0.477195 -0.00735454 0.0 
0.0335668 -0.0128226 0.0 
0.0887884 0.00708579 0.0 
0.0250203 -0.00153266 0.0 
0.908164 -0.0967581 0.0 
0.0445229 0.00231642 0.0 
0.00114883 0.000110218 0.0 
0.936757 -0.0588419 0.0 
0.701638 0.0690175 0.0 
0.232727 -0.0180777 0.0 
0.923459 0.0262996 0.0 
-2.4887e-305 -5.48128e-306 0.0 
0.245808 -0.0334025 0.0 
1.05095 -0.055045 0.0 
0.0285414 0.000990236 0.0 
0.47175 0.120554 0.0 
0.014074 0.000896661 0.0 
0.459318 -0.0537239 0.0 
4.35675e-13 7.34922e-14 0.0 
0.901133 -0.0354033 0.0 
0.139509 -0.0148006 0.0 
-2.4202e-300 8.66571e-301 0.0 
0.142986 0.00225792 0.0 
0.858036 -0.0103172 0.0 
3.9502e-171 2.65461e-172 0.0 
0.806985 -0.0719196 0.0 
-3.94326e-61 -1.10046e-62 0.0 
0.491213 0.0242817 0.0 
-2.59707e-170 -3.12971e-171 0.0 
0.116637 0.0126745 0.0 
0.348113 0.0181916 0.0 
0.645367 0.090889 0.0 
0.076266 0.0191446 0.0 
0.945658 -0.144844 0.0 
1.0078 0.00763329 0.0 
0.818568 0.0788871 0.0 
0.0740953 0.000920749 0.0 
1.00587 -0.00505587 0.0 
0.135797 0.0180907 0.0 
0.371406 -7.88736e-06 0.0 
-2.64964e-300 -2.83909e-301 0.0 
0.338493 -0.0448214 0.0 
0.142276 -0.00699437 0.0 
0.061606 0.00200647 0.0 
3.20767e-183 -1.76295e-184 0.0 
2.70676e-13 -1.29178e-13 0.0 
0.941219 -0.117514 0.0 
0.32896 0.00688076 0.0 
0.502954 0.00516685 0.0 
0.996492 0.00658202 0.0 
0.81725 -0.00164305 0.0 
0.199737 0.0131266 0.0 
0.841654 0.0741811 0.0 
0.762386 0.325971 0.0 
-7.61115e-285 1.49046e-285 0.0 
0.310888 0.26444 0.0 
-5.78961e-122 -9.56649e-122 0.0 
0.0159025 0.000408844 0.0 
0.801252 -0.120415 0.0 
0.389578 0.0337278 0.0 
0.0133914 -0.00126008 0.0 
-3.91037e-295 2.24852e-295 0.0 
0.791634 0.340033 0.0 
0.00798595 0.000600989 0.0 
0.048482 -9.4814e-05 0.0 
0.361708 -0.013457 0.0 
0.628385 0.00390377 0.0 
0.591869 0.0725304 0.0 
0.480244 0.0423479 0.0 
0.0179828 -0.000297708 0.0 
0.00782448 -0.000385851 0.0 
-4.08315e-285 -9.83922e-287 0.0 
-8.76933e-167 -7.66386e-168 0.0 
-2.41716e-23 8.45801e-25 0.0 
0.000451342 -1.77373e-05 0.0 
0.607904 0.314141 0.0 
4.75219e-192 -3.7232e-193 0.0 
0.512476 0.0387812 0.0 
0.527417 0.0843638 0.0 
0.999645 0.00112933 0.0 
-4.78448e-296 -8.45298e-297 0.0 
1.01655 -0.00969811 0.0 
0.805002 0.247956 0.0 
0.255191 -0.00289145 0.0 
0.999897 0.00420858 0.0 
0.0492861 0.00258684 0.0 
-6.0689e-294 -2.99517e-294 0.0 
0.487086 -0.0606509 0.0 
0.176985 -0.00799192 0.0 
0.663251 0.0608629 0.0 
-4.78906e-294 -6.61024e-295 0.0 
0.0660226 -0.00772582 0.0 
-6.68102e-296 3.36131e-297 0.0 
1.0014 -0.000982474 0.0 
1.00063 0.0515939 0.0 
-9.16866e-294 6.63406e-294 0.0 
-1.8375e-297 -1.98709e-298 0.0 
0.0198317 0.00133748 0.0 
1.01773 0.00611137 0.0 
0.524728 -0.00525925 0.0 
0.163984 0.0659106 0.0 
0.206652 -0.0219222 0.0 
0.1836 0.0290895 0.0 
0.315942 0.0151504 0.0 
0.141978 0.00688493 0.0 
0.733959 -0.127623 0.0 
-5.34277e-286 1.04691e-286 0.0 
-6.18936e-56 1.65249e-57 0.0 
0.107689 -0.0122524 0.0 
1.00088 0 0.0 
0.958529 -0.237627 0.0 
0.00486285 -0.000843864 0.0 
0.915791 0.0427692 0.0 
0.192301 0.031147 0.0 
-2.70359e-255 -2.35121e-256 0.0 
-3.64008e-298 -4.10389e-299 0.0 
0.997593 0.0192335 0.0 
0.0156302 0.0016025 0.0 
0.800866 -0.139953 0.0 
0.584491 -0.00526138 0.0 
0.226396 -0.025388 0.0 
0.559252 0.0320536 0.0 
0.0261541 0.00130213 0.0 
1.00282 -0.0293284 0.0 
0.213707 -0.0297577 0.0 
0.000358004 -1.6148e-05 0.0 
0.0972176 -0.0072822 0.0 
1.12047 0.0714207 0.0 
0.0332959 0.000264341 0.0 
0.791461 0.135919 0.0 
0.759448 0.195656 0.0 
0.133752 0.00324598 0.0 
0.790319 0.325684 0.0 
0.76842 0.0355138 0.0 
-6.0425e-297 -1.06563e-297 0.0 
0.0696666 0.00325495 0.0 
-5.45976e-298 9.75859e-299 0.0 
0.00932764 -0.00135623 0.0 
0.056976 -0.00186787 0.0 
0.594969 -0.348618 0.0 
0.596195 0.0590376 0.0 
-7.60011e-295 2.72128e-295 0.0 
0.22032 -0.105224 0.0 
0.505498 -0.0139687 0.0 
-2.64289e-293 1.5197e-293 0.0 
0.876321 -0.253526 0.0 
1.08689 -0.166665 0.0 
0.48497 0.0340036 0.0 
0.0234758 0.000835271 0.0 
0.362471 0.00256181 0.0 
0.99992 -5.66643e-06 0.0 
0.416415 0.00334642 0.0 
0.624199 -0.0734859 0.0 
0.0899895 -0.0103679 0.0 
0.911917 -0.114992 0.0 
1.00008 8.2194e-05 0.0 
0.913279 -0.0483787 0.0 
0.296336 0.0245149 0.0 
0.83726 0.355501 0.0 
1.01036 -0.00393986 0.0 
0.0398776 -0.0126127 0.0 
0.430824 0.0245028 0.0 
0.927445 0.0160243 0.0 
-9.88298e-151 -8.63712e-152 0.0 
0.317834 0.00379197 0.0 
0.009249 0.00102465 0.0 
1.12376 0.114688 0.0 
0.777321 0.260766 0.0 
-2.69689e-43 3.11766e-44 0.0 
0.504394 0.00758978 0.0 
0.499361 0.00216409 0.0 
-1.22399e-296 -4.70555e-297 0.0 
0.997567 -0.00198516 0.0 
0.70905 -0.379412 0.0 
0.400367 0.0340855 0.0 
0.252862 0.00575048 0.0 
0.24873 -0.021352 0.0 
0.00741771 0.000475288 0.0 
0.864424 0.01867 0.0 
-1.14166e-293 -5.21267e-294 0.0 
0.00776128 -0.00117975 0.0 
0.0201154 0.000521937 0.0 
0.28304 0.0326564 0.0 
0.3152 0.101621 0.0 
0.095214 0.00540238 0.0 
0.108915 0.00578259 0.0 
0.657348 -0.287593 0.0 
-5.62107e-297 -5.17293e-298 0.0 
-1.7105e-27 -8.17518e-29 0.0 
1.06367 0.00327008 0.0 
5.09036e-208 6.12642e-210 0.0 
0.473254 0.0368679 0.0 
1.00243 0.00028543 0.0 
-5.56168e-12 -1.59184e-12 0.0 
0.999888 -1.21347e-05 0.0 
0.940013 0.221989 0.0 
0.0204566 0.0015255 0.0 
0.716121 -0.268871 0.0 
1 0.000114595 0.0 
0.731357 0.346175 0.0 
0.0898943 -0.0101067 0.0 
0.999721 0.000801604 0.0 
1.00582 0 0.0 
0.0103268 0.000696779 0.0 
0.10193 0.00432116 0.0 
0.26942 0.0159432 0.0 
1.07486 -0.0976817 0.0 
0.0103966 0.000863424 0.0 
0.016742 -0.00766506 0.0 
1.07276 0.117589 0.0 
0.593302 -0.00302564 0.0 
0.716875 0.335396 0.0 
9.17613e-229 -2.14521e-229 0.0 
8.52817e-07 -4.06684e-07 0.0 
0.647979 0.254649 0.0 
0.374744 0.0114338 0.0 
0.712035 0.269097 0.0 
0.122787 0.0582831 0.0 
0.0317238 0.00141774 0.0 
0.71543 0.0430275 0.0 
0.0791322 -0.00856999 0.0 
0.701272 0.176112 0.0 
0.183285 0.0048455 0.0 
1.00159 -0.00711174 0.0 
-6.95881e-296 -2.67527e-296 0.0 
0.774491 0.122489 0.0 
0.498453 0.0955179 0.0 
0.79749 0.00945033 0.0 
2.62536e-97 1.84455e-98 0.0 
0.450022 0.00912558 0.0 
3.03122e-213 -1.23944e-214 0.0 
0.999914 -3.2475e-05 0.0 
1.49599e-14 1.21385e-15 0.0 
0.273737 0.00974731 0.0 
0.46332 0.0255719 0.0 
0.999995 -0.000230163 0.0 
1.00001 -0.000187107 0.0 
0.0234734 0.00117135 0.0 
0.676945 0.239756 0.0 
-1.87449e-38 -1.68463e-39 0.0 
0.16981 -0.0301425 0.0 
0.012614 0.000716526 0.0 
1.02736 -0.014914 0.0 
1.00112 0 0.0 
0.999776 -5.6069e-05 0.0 
1.10704 0.12933 0.0 
1.06411 -0.10373 0.0 
0.507123 -0.054351 0.0 
0.71028 0.374136 0.0 
0.982875 0.00777622 0.0 
0.018162 0.00108971 0.0 
0.844541 -0.0741138 0.0 
-7.01651e-290 3.81709e-291 0.0 
0.047102 -0.00267811 0.0 
1.24719e-230 1.08815e-231 0.0 
0.220066 0.051458 0.0 
0.728472 0.306315 0.0 
1.00031 -0.000236639 0.0 
1.00714 0.00114463 0.0 
0.707822 0.00535357 0.0 
0.0849788 0.000991752 0.0 
0.263796 0.0107054 0.0 
1.01406 -0.194688 0.0 
1.00248 -0.00195788 0.0 
0.608643 -0.293687 0.0 
0.0191503 0.000197946 0.0 
0.555812 0.0095222 0.0 
1.02067 -0.252387 0.0 
0.00886879 0.00100864 0.0 
0.872465 0.112735 0.0 
1.41096e-307 1e-307 0.0 
0.246557 0.017986 0.0 
0.560385 -0.00813234 0.0 
1.00195 -0.0030723 0.0 
0.514677 -0.0490307 0.0 
0.542567 0.100966 0.0 
0.856931 0.150045 0.0 
-6.49476e-296 1.16834e-296 0.0 
0.924051 -0.267998 0.0 
0.0118867 -0.0018486 0.0 
0.00995378 -0.00100944 0.0 
0.018558 0.000849169 0.0 
0.00472432 -0.000835581 0.0 
0.889584 -0.0932856 0.0 
7.24672e-248 -2.04093e-248 0.0 
0.9499 -0.052638 0.0 
0.581964 -0.43105 0.0 
0.714463 -0.0509226 0.0 
1.00027 0 0.0 
0.0476195 0.00291959 0.0 
0.449132 -0.102849 0.0 
0.541365 -0.036121 0.0 
7.0252e-209 -2.87254e-210 0.0 
1.16336e-76 -9.04683e-78 0.0 
0.0250927 0.00111357 0.0 
0.0133812 0.000239684 0.0 
0.731333 0.0546313 0.0 
0.0057547 -0.000487916 0.0 
0.44223 -0.000441967 0.0 
0.153805 -0.00246092 0.0 
0.782691 0.364418 0.0 
0.841345 0.140395 0.0 
0.545299 -0.0620255 0.0 
1.00368 0.00149096 0.0 
0.31887 -0.0282343 0.0 
0.156948 -0.00149623 0.0 
0.587759 -0.0108997 0.0 
-2.28529e-291 -1.20377e-292 0.0 
0.232661 -0.0221699 0.0 
0.471223 -0.0832952 0.0 
0.992982 -0.0541263 0.0 
0.867847 0.0822563 0.0 
0.00491181 -0.000726052 0.0 
1.00891 0.000303074 0.0 
1 0 0.0 
0.939563 -0.0702858 0.0 
0.938092 0.0737931 0.0 
0.761346 0.370658 0.0 
0.999132 -0.000164317 0.0 
-2.42896e-183 -2.92727e-184 0.0 
0.321505 0.0384826 0.0 
0.0202514 -0.00240344 0.0 
8.85203e-245 7.72325e-246 0.0 
0.713558 -0.00647451 0.0 
1.00646 0 0.0 
0.749083 0.275196 0.0 
-4.2612e-142 -1.12612e-142 0.0 
-8.76028e-139 -6.70014e-140 0.0 
0.999917 -6.03471e-06 0.0 
1.00744 4.73041e-05 0.0 
0.234148 0.0102126 0.0 
0.608935 -0.0050802 0.0 
0.931009 0.102966 0.0 
0.159631 0.0210069 0.0 
0.983103 0.276319 0.0 
0.743495 -0.0641394 0.0 
1.00153 0 0.0 
0.182337 -0.00657867 0.0 
0.789594 0.31658 0.0 
0.429106 0.0112678 0.0 
0.45096 -0.0435908 0.0 
0.168719 0.0320649 0.0 
0.0866892 0.00401219 0.0 
6.67482e-179 8.04298e-181 0.0 
0.00348913 -0.000173314 0.0 
0.704455 -0.0384448 0.0 
4.80676e-210 4.87975e-212 0.0 
0.771797 0.362748 0.0 
0.747084 0.0614438 0.0 
0.424989 -0.126163 0.0 
1.00094 0.00265668 0.0 
0.864506 0.350207 0.0 
0.997219 0.00108245 0.0 
0.490556 -0.17113 0.0 
0.816271 0.35369 0.0 
0.01356 -0.00148671 0.0 
1.00007 -0.00569728 0.0 
0.944352 -0.335884 0.0 
0.572065 -0.0613218 0.0 
0.745174 -0.090639 0.0 
0.806513 -0.0813771 0.0 
0.0418608 0.00333933 0.0 
0.258803 0.000497613 0.0 
0.159695 7.8459e-05 0.0 
0.330978 0.046137 0.0 
1.05595 0.10177 0.0 