<VTKFile type="UnstructuredGrid" version="0.1" byte_order="LittleEndian">
  <UnstructuredGrid>
    <Piece NumberOfPoints="13414" NumberOfCells="26667">
      <Points>
        <DataArray type = "Float64" NumberOfComponents="3" format="ascii">
0 0 0.0 
14 0 0.0 
14 8 0.0 
0 8 0.0 
4.16782 4.09801 0.0 
4.49804 4.07247 0.0 
4.83228 4.01732 0.0 
4.52811 3.97556 0.0 
4.06889 3.96532 0.0 
4.00033 3.99544 0.0 
4.48791 3.9701 0.0 
4.32674 4.04689 0.0 
4.2631 4.06884 0.0 
4.59247 3.97971 0.0 
4.33592 4.0755 0.0 
4.20715 3.97737 0.0 
4.08897 4.02831 0.0 
4.22683 3.95678 0.0 
4.04003 3.97377 0.0 
3.96554 4.00011 0.0 
4.13683 4.04218 0.0 
4.94922 4.02073 0.0 
4.21399 3.9543 0.0 
4.16045 4.07956 0.0 
4.09201 3.95624 0.0 
4.86679 3.7243 0.0 
4.39831 4.06075 0.0 
4.01323 3.99894 0.0 
4.78225 4.03653 0.0 
4.25007 4.10489 0.0 
5.03123 4.04648 0.0 
4.43422 4.0745 0.0 
4.29559 3.95682 0.0 
5.05801 3.99985 0.0 
5.07564 3.98342 0.0 
4.00962 4.08349 0.0 
4.22145 4.07889 0.0 
9.65247 4.32493 0.0 
4.3826 3.93601 0.0 
5.32371 4.06067 0.0 
4.64216 4.05006 0.0 
4.75236 4.05766 0.0 
4.57512 3.88223 0.0 
4.20357 3.95412 0.0 
3.99152 4.00162 0.0 
4.34508 4.08154 0.0 
4.17759 3.97818 0.0 
4.3192 4.05771 0.0 
4.09533 4.03459 0.0 
4.00922 3.99881 0.0 
4.15989 3.95429 0.0 
4.4538 4.05514 0.0 
4.94182 4.021 0.0 
4.36731 4.05544 0.0 
4.70686 3.98192 0.0 
4.0921 3.94174 0.0 
5.16321 3.91641 0.0 
3.93682 3.99751 0.0 
4.11094 4.03801 0.0 
4.64193 3.98086 0.0 
5.12801 3.98494 0.0 
4.00794 4.01927 0.0 
3.67553 4.08634 0.0 
4.76746 4.063 0.0 
4.14002 4.03746 0.0 
3.99196 4.00548 0.0 
4.65963 4.05068 0.0 
4.21862 4.08668 0.0 
5.20642 4.02539 0.0 
4.39995 4.07071 0.0 
3.94066 4.00568 0.0 
5.00243 3.97089 0.0 
4.39911 4.08554 0.0 
4.13626 4.05879 0.0 
4.14795 3.95491 0.0 
5.22448 4.19982 0.0 
4.28318 4.06659 0.0 
4.3193 4.09319 0.0 
5.70236 3.85358 0.0 
4.97701 4.00517 0.0 
4.96564 4.02151 0.0 
4.70465 3.98093 0.0 
4.01647 3.99236 0.0 
4.80814 4.03392 0.0 
4.58113 3.97924 0.0 
4.31638 4.10356 0.0 
4.92739 4.24607 0.0 
4.15135 3.9478 0.0 
4.11961 3.95973 0.0 
0 6.15459 0.0 
4.0192 3.99331 0.0 
4.86263 3.9914 0.0 
4.20624 3.96088 0.0 
4.39413 4.09439 0.0 
4.97586 4.02633 0.0 
4.17285 4.06109 0.0 
5.00785 4.00312 0.0 
10.8833 7.73481 0.0 
4.00057 3.99699 0.0 
4.06125 4.04044 0.0 
14 6.11123 0.0 
4.54095 4.07791 0.0 
4.17782 3.95315 0.0 
3.99379 4.00703 0.0 
3.96293 3.99513 0.0 
5.60619 4.03017 0.0 
4.17824 3.97572 0.0 
3.02164 2.14371 0.0 
4.50397 3.97566 0.0 
4.28762 3.95822 0.0 
3.9464 4.01382 0.0 
3.88293 4.06948 0.0 
4.10529 4.06498 0.0 
4.55541 3.97604 0.0 
4.67061 4.03257 0.0 
4.23788 4.086 0.0 
4.46457 3.97134 0.0 
4.58763 3.95701 0.0 
4.47934 4.06632 0.0 
4.96558 4.01767 0.0 
4.31296 4.05832 0.0 
4.80187 4.03552 0.0 
4.18653 4.06172 0.0 
4.42037 4.03691 0.0 
4.27964 3.95178 0.0 
5.0358 4.01482 0.0 
14 5.21618 0.0 
4.40535 4.09238 0.0 
4.10445 4.07202 0.0 
4.46271 4.10712 0.0 
4.96963 4.01637 0.0 
4.28749 4.07809 0.0 
3.94943 3.96456 0.0 
6.00479 3.2942 0.0 
4.09422 4.04418 0.0 
4.90711 3.98054 0.0 
4.47687 3.98236 0.0 
4.24845 4.07301 0.0 
4.57256 4.05927 0.0 
4.70456 4.05113 0.0 
4.19351 4.07858 0.0 
3.9877 3.99506 0.0 
4.88733 4.00745 0.0 
4.12971 4.05341 0.0 
4.61371 4.18066 0.0 
4.8715 4.03012 0.0 
5.07797 3.99667 0.0 
4.31878 4.06975 0.0 
4.52656 4.08296 0.0 
4.26473 4.0925 0.0 
3.05817 4.59047 0.0 
4.34985 4.07572 0.0 
4.96302 4.01986 0.0 
4.34604 4.08406 0.0 
4.37798 8 0.0 
4.12623 4.0709 0.0 
4.81077 4.01071 0.0 
4.08368 4.05662 0.0 
4.21452 4.09342 0.0 
4.48472 4.04544 0.0 
4.33046 3.95323 0.0 
4.27852 0 0.0 
4.09577 4.05589 0.0 
4.29262 4.07791 0.0 
4.21772 4.0805 0.0 
5.31745 4.5888 0.0 
4.53363 4.06936 0.0 
4.56659 4.04773 0.0 
4.44144 4.05314 0.0 
4.39708 4.07712 0.0 
4.85972 3.96118 0.0 
4.70266 8 0.0 
7.69993 0 0.0 
4.01965 4.03223 0.0 
4.36724 4.04295 0.0 
5.06798 4.04582 0.0 
4.00364 4.00935 0.0 
4.13425 4.07811 0.0 
4.31771 3.96717 0.0 
4.25561 4.06969 0.0 
4.23123 3.96238 0.0 
4.04483 3.94951 0.0 
4.1741 4.07586 0.0 
4.0152 4.00142 0.0 
4.19763 3.93666 0.0 
4.89032 4.03847 0.0 
4.15389 3.96566 0.0 
4.03854 4.03061 0.0 
4.61876 3.96235 0.0 
4.83203 3.98227 0.0 
4.55668 4.05035 0.0 
3.91267 2.38613 0.0 
4.40352 3.95564 0.0 
4.10124 4.04912 0.0 
4.07946 3.97141 0.0 
4.08502 3.97256 0.0 
4.18602 4.03617 0.0 
4.17356 4.03496 0.0 
4.29787 4.08601 0.0 
4.62043 3.96733 0.0 
4.08836 4.05658 0.0 
5.06446 4.0348 0.0 
4.08775 3.9317 0.0 
4.20746 4.07011 0.0 
4.23608 3.93283 0.0 
4.30754 3.9604 0.0 
4.12124 3.98374 0.0 
4.21971 3.98354 0.0 
4.64875 3.96973 0.0 
4.08226 3.93581 0.0 
4.17912 4.05461 0.0 
4.52946 4.07152 0.0 
5.30977 4.20921 0.0 
5.09755 4.42185 0.0 
3.99177 4.03012 0.0 
4.39238 4.06898 0.0 
4.90707 3.87036 0.0 
4.8524 3.96576 0.0 
4.05002 3.97561 0.0 
4.1829 4.06659 0.0 
4.12635 4.07409 0.0 
0 1.4212 0.0 
4.13478 4.05158 0.0 
4.8762 4.04179 0.0 
4.18679 4.08465 0.0 
4.35276 4.07467 0.0 
5.10947 4.01128 0.0 
4.56483 3.97343 0.0 
4.96614 3.7238 0.0 
4.57793 3.96132 0.0 
4.97859 3.99681 0.0 
4.25777 4.07923 0.0 
4.63041 4.05311 0.0 
4.29003 4.07166 0.0 
8.89619 3.01394 0.0 
4.0644 3.93891 0.0 
4.33589 3.95158 0.0 
4.0806 4.08505 0.0 
4.16503 4.11076 0.0 
4.97051 4.00687 0.0 
8.14295 2.03051 0.0 
5.0002 3.83612 0.0 
4.19206 3.91938 0.0 
4.89324 4.00714 0.0 
3.96023 4.01528 0.0 
4.20971 4.06895 0.0 
4.09641 3.95124 0.0 
4.12454 3.92729 0.0 
4.35804 3.96901 0.0 
4.08491 4.0641 0.0 
3.96293 4.03138 0.0 
4.22039 4.0457 0.0 
4.36412 3.95672 0.0 
4.06298 3.99231 0.0 
4.21022 3.93613 0.0 
4.19366 3.95089 0.0 
4.04592 3.97223 0.0 
4.21125 3.95113 0.0 
4.93959 4.01427 0.0 
3.99252 4.00665 0.0 
4.86817 3.99208 0.0 
4.17636 4.06982 0.0 
4.01378 4.004 0.0 
9.42594 7.54773 0.0 
3.94066 3.96869 0.0 
4.14911 3.96645 0.0 
8.18623 5.1536 0.0 
3.95819 3.97698 0.0 
4.88879 4.02199 0.0 
4.99182 3.5726 0.0 
4.00224 4.00832 0.0 
4.66481 4.05052 0.0 
4.54783 4.09596 0.0 
4.15636 4.04974 0.0 
4.20488 4.08602 0.0 
3.95778 3.98461 0.0 
4.96863 4.01905 0.0 
3.9419 3.97853 0.0 
4.74455 3.97897 0.0 
4.19018 4.05306 0.0 
4.58873 4.058 0.0 
4.10081 3.94382 0.0 
4.55995 4.05261 0.0 
4.69463 4.07217 0.0 
4.85747 4.03158 0.0 
4.38205 4.11296 0.0 
4.16733 4.07556 0.0 
4.78666 4.03468 0.0 
5.04956 4.04387 0.0 
4.9113 4.03044 0.0 
4.70716 3.9846 0.0 
4.14875 4.0416 0.0 
4.47656 4.10124 0.0 
3.9771 4.03148 0.0 
4.03754 4.03168 0.0 
4.06992 4.05825 0.0 
5.06458 4.0924 0.0 
4.15561 4.10177 0.0 
4.18309 4.12442 0.0 
3.96476 4.03852 0.0 
4.08008 3.9656 0.0 
4.18744 4.07562 0.0 
4.89086 3.99349 0.0 
4.61011 3.96325 0.0 
3.96822 4.02719 0.0 
3.97233 4.04194 0.0 
3.98573 3.91699 0.0 
4.10458 3.96548 0.0 
4.0065 4.01453 0.0 
4.8323 3.98399 0.0 
4.32429 4.08681 0.0 
5.09803 3.74713 0.0 
4.20876 3.92492 0.0 
4.04833 4.00643 0.0 
3.92251 4.00785 0.0 
4.31023 4.04881 0.0 
4.22899 4.0812 0.0 
4.42611 3.96715 0.0 
4.07543 3.96017 0.0 
4.30498 3.95249 0.0 
4.3849 4.08353 0.0 
4.82116 4.01428 0.0 
4.60867 3.96088 0.0 
5.1397 4.62964 0.0 
4.99591 4.0384 0.0 
3.94564 3.99975 0.0 
4.39174 4.08409 0.0 
4.26548 4.05787 0.0 
4.80557 3.95542 0.0 
4.40619 4.06762 0.0 
4.30848 4.04165 0.0 
4.98371 4.01321 0.0 
4.35255 4.06175 0.0 
4.05285 3.93493 0.0 
4.15284 4.083 0.0 
4.37093 4.06777 0.0 
5.17687 3.4681 0.0 
3.99883 4.00817 0.0 
4.80831 4.01466 0.0 
4.71979 3.97524 0.0 
5.2399 4.52296 0.0 
11.7013 4.10211 0.0 
4.00955 3.98517 0.0 
4.2593 4.09637 0.0 
4.00418 4.00381 0.0 
4.61512 3.97189 0.0 
4.1384 3.95607 0.0 
4.84535 4.02927 0.0 
4.51917 4.07996 0.0 
4.5533 4.04791 0.0 
4.00418 3.99483 0.0 
4.36894 4.08372 0.0 
4.00381 4.03411 0.0 
4.13096 4.05618 0.0 
4.05408 3.9411 0.0 
4.00326 3.99438 0.0 
4.40304 4.06793 0.0 
4.02341 4.03456 0.0 
4.32616 4.09061 0.0 
4.52724 7.41561 0.0 
5.05919 4.01855 0.0 
4.22973 3.95422 0.0 
4.60649 3.98031 0.0 
4.76252 4.05839 0.0 
4.46983 4.04198 0.0 
4.15329 4.03972 0.0 
4.58476 3.95981 0.0 
4.14581 4.04395 0.0 
4.01757 4.01026 0.0 
3.97661 4.05846 0.0 
3.95965 3.9291 0.0 
4.40985 4.07202 0.0 
4.88338 4.00691 0.0 
5.0873 4.02567 0.0 
3.87727 4.36427 0.0 
4.17387 3.99145 0.0 
1.24078 0.550265 0.0 
4.4306 4.04361 0.0 
4.1119 3.93738 0.0 
4.47172 4.06649 0.0 
4.20156 3.96536 0.0 
2.38032 0.204862 0.0 
4.09782 3.95912 0.0 
9.1005 7.43296 0.0 
4.24552 4.07113 0.0 
4.62294 3.97998 0.0 
4.23952 3.99244 0.0 
4.1492 4.06587 0.0 
4.85377 4.02535 0.0 
4.36594 4.07165 0.0 
4.42737 3.99706 0.0 
4.00192 3.996 0.0 
4.01517 4.03055 0.0 
4.26022 3.94165 0.0 
4.23154 4.07931 0.0 
4.36563 4.07339 0.0 
3.85267 4.10531 0.0 
4.02246 4.02836 0.0 
4.2146 3.9645 0.0 
4.86022 4.0243 0.0 
3.99908 3.98836 0.0 
12.3913 3.51593 0.0 
4.12151 3.94609 0.0 
4.81521 4.03335 0.0 
4.10252 3.95063 0.0 
4.35802 4.06829 0.0 
4.0604 4.0233 0.0 
4.39881 3.96854 0.0 
4.52048 4.00252 0.0 
10.6684 7.55729 0.0 
3.99355 3.9371 0.0 
4.97222 4.02124 0.0 
4.13366 3.9572 0.0 
5.04715 3.95987 0.0 
5.0676 3.97761 0.0 
4.70161 3.97766 0.0 
4.35005 4.09252 0.0 
4.2163 3.94824 0.0 
4.66885 3.82629 0.0 
4.22957 3.95099 0.0 
3.94576 4.12556 0.0 
4.12589 3.95744 0.0 
4.88044 0 0.0 
4.99093 4.01037 0.0 
4.85133 4.02834 0.0 
13.3549 8 0.0 
4.32323 3.97858 0.0 
5.08451 3.96751 0.0 
4.69635 4.04755 0.0 
5.00369 4.02226 0.0 
4.42185 4.07396 0.0 
4.04734 4.04876 0.0 
4.92359 4.00409 0.0 
4.42571 3.96089 0.0 
5.12351 4.04488 0.0 
4.12408 3.94161 0.0 
4.25641 4.04704 0.0 
4.81052 4.03675 0.0 
4.39804 4.06865 0.0 
4.26004 3.94534 0.0 
4.04324 3.98528 0.0 
5.04726 4.00417 0.0 
4.5787 4.08069 0.0 
5.28913 4.65845 0.0 
3.99922 3.99464 0.0 
4.02651 3.98658 0.0 
4.05096 4.01373 0.0 
4.43778 4.07297 0.0 
4.84817 4.03829 0.0 
5.20444 0.177042 0.0 
5.03192 4.01229 0.0 
4.66804 4.0711 0.0 
5.67492 4.56066 0.0 
10.8355 3.51217 0.0 
4.63008 4.05831 0.0 
3.99865 3.97733 0.0 
4.06234 3.9498 0.0 
4.98947 3.99702 0.0 
4.71454 3.97027 0.0 
4.41441 4.07236 0.0 
4.06894 3.98445 0.0 
4.08112 3.97068 0.0 
4.01612 3.98496 0.0 
5.19714 4.15173 0.0 
4.36279 4.07512 0.0 
4.51983 4.11882 0.0 
4.255 4.06007 0.0 
4.68485 3.97233 0.0 
4.80466 3.97338 0.0 
5.12338 4.05963 0.0 
4.30661 4.08755 0.0 
12.0984 8 0.0 
4.29981 3.98456 0.0 
4.02873 4.04089 0.0 
[...]
<PointData>
  <DataArray type = "Float64" Name="Vitesse" NumberOfComponents="3" format="ascii">
1 0 0.0 
1.00009 0 0.0 
0.999951 0 0.0 
1 0 0.0 
1.03712 0.172479 0.0 
0.134174 -0.00610827 0.0 
-1.23461e-100 2.48107e-101 0.0 
0.0150815 0.00157807 0.0 
0.417985 -0.0698111 0.0 
0.119867 -0.193944 0.0 
0.0632477 0.00319375 0.0 
-5.31461e-220 -3.29993e-221 0.0 
0.0576557 0.00433646 0.0 
0.000439511 7.57095e-05 0.0 
0.161221 0.00286802 0.0 
-1.16752e-101 -6.09408e-104 0.0 
1.28811e-209 3.47207e-211 0.0 
0.24819 -0.00296852 0.0 
0.302929 -0.0737777 0.0 
0.648082 -0.0624221 0.0 
-1.64404e-143 -1.43439e-144 0.0 
0.0675072 -0.011167 0.0 
0.318251 -0.00588469 0.0 
0.767519 0.12508 0.0 
0.620786 -0.0809829 0.0 
1.06957 -0.0211122 0.0 
-4.13497e-101 6.61663e-103 0.0 
2.94926e-206 -1.69588e-206 0.0 
0.00823109 -0.0009801 0.0 
0.961304 0.0979481 0.0 
0.359271 -0.0619076 0.0 
0.138204 -0.00427082 0.0 
0.222739 0.00132908 0.0 
0.15883 0.00273669 0.0 
0.261289 0.02308 0.0 
0.880696 0.240843 0.0 
0.478843 0.0465904 0.0 
0.999347 0.000106166 0.0 
0.570702 -3.00537e-07 0.0 
0.591927 -0.0501899 0.0 
3.33292e-41 -2.84171e-42 0.0 
0.15643 -0.0172274 0.0 
1.02695 -0.00405405 0.0 
0.336124 -0.008328 0.0 
0.294817 -0.110311 0.0 
0.29931 0.00391839 0.0 
2.63914e-200 1.64891e-201 0.0 
9.50979e-204 -1.18085e-205 0.0 
4.89744e-207 1.3201e-208 0.0 
3.42699e-203 -3.70893e-203 0.0 
0.406159 -0.01932 0.0 
3.24751e-160 -6.18966e-162 0.0 
0.0609856 -0.0102087 0.0 
9.26027e-198 -6.75145e-199 0.0 
0.0330995 0.0024005 0.0 
0.99524 -0.159075 0.0 
0.685855 0.0348217 0.0 
0.765316 -0.0418749 0.0 
4.83265e-211 5.02316e-212 0.0 
0.0132206 -4.81293e-05 0.0 
0.306452 0.0152899 0.0 
0.321461 0.245009 0.0 
0.945396 0.0108634 0.0 
0.225287 -0.0246709 0.0 
-1.47233e-144 -1.28458e-145 0.0 
0.28803 0.00462639 0.0 
0.00786015 -0.000523251 0.0 
0.702786 0.0779138 0.0 
0.401296 -0.0331399 0.0 
0.0561057 -0.000410387 0.0 
0.750615 -0.0213426 0.0 
0.323794 0.0321285 0.0 
0.354469 0.000181404 0.0 
0.200264 0.0346762 0.0 
0.418593 -0.0246048 0.0 
0.846705 -0.0351375 0.0 
9.10541e-12 7.25812e-13 0.0 
0.606002 0.0291735 0.0 
0.890212 0.0652214 0.0 
0.000212286 -3.76174e-05 0.0 
0.0929382 -0.0158416 0.0 
0.0418257 0.00327765 0.0 
2.05181e-205 -1.17982e-205 0.0 
0.0151936 -0.00167421 0.0 
0.00133935 0.000183981 0.0 
0.819858 0.0481591 0.0 
1.03466 -0.0102039 0.0 
0.62135 -0.044083 0.0 
0.350121 -0.0295557 0.0 
1 0 0.0 
1.70327e-205 -9.79405e-206 0.0 
0.0130298 0.00113992 0.0 
0.162584 -4.46459e-05 0.0 
0.538555 0.00636985 0.0 
0.142605 -0.0251735 0.0 
0.0696946 0.012663 0.0 
0.043968 -0.00798228 0.0 
1.00007 -3.25321e-05 0.0 
0.0297535 -0.0881971 0.0 
0.171154 0.0522002 0.0 
0.999949 -6.65338e-06 0.0 
0.238393 -0.0119097 0.0 
0.40096 -0.0165672 0.0 
0.25321 0.0659202 0.0 
0.673396 -0.0859418 0.0 
0.667202 -0.0295609 0.0 
-4.41609e-113 1.13325e-114 0.0 
1.00255 -0.00570871 0.0 
0.000682485 9.88591e-05 0.0 
0.196272 0.000949316 0.0 
0.733333 0.00503262 0.0 
0.869667 0.047042 0.0 
0.704539 0.166568 0.0 
0.0225464 0.001783 0.0 
1.09869e-89 -5.94167e-91 0.0 
0.620855 0.0585311 0.0 
0.037591 0.00199164 0.0 
0.2596 0.009436 0.0 
0.0276195 -0.002413 0.0 
0.0654706 -0.0111265 0.0 
1.22144e-205 -1.3908e-207 0.0 
0.0200238 -0.0027241 0.0 
0.0390629 0.00509895 0.0 
-5.66503e-141 4.4683e-142 0.0 
0.328061 -0.00069671 0.0 
0.138604 -0.024218 0.0 
0.999954 8.54963e-07 0.0 
0.49011 0.0027792 0.0 
0.886631 0.213589 0.0 
0.718893 -0.000322318 0.0 
0.0613963 -0.0106348 0.0 
0.282618 0.0114965 0.0 
0.797692 -0.133636 0.0 
1.00029 0.0133608 0.0 
1.05933e-188 2.29979e-189 0.0 
0.158849 0.00843275 0.0 
-1.89663e-60 -1.72864e-61 0.0 
0.217861 0.0177525 0.0 
0.0155902 -0.00102197 0.0 
0.0518819 -0.00476061 0.0 
0.582149 0.074961 0.0 
0.450172 -0.224696 0.0 
-3.42874e-95 6.06353e-96 0.0 
3.89006e-43 6.74109e-44 0.0 
1.11751 -0.00581564 0.0 
0.0490514 -0.00733971 0.0 
0.197331 0.0057645 0.0 
0.0268003 -0.00147937 0.0 
0.30962 -0.0129811 0.0 
0.705387 0.0581323 0.0 
0.990909 0.00972534 0.0 
0.158943 -0.00138787 0.0 
0.0777364 -0.0131353 0.0 
0.357573 0.0063963 0.0 
1.00632 0 0.0 
0.729126 0.147303 0.0 
4.22213e-205 2.71696e-206 0.0 
0.621777 0.165605 0.0 
0.864363 0.104829 0.0 
-5.9852e-154 2.74977e-155 0.0 
0.283951 0.00244276 0.0 
1.0056 0 0.0 
0.455207 0.111231 0.0 
0.267844 0.0114563 0.0 
0.540227 0.0563091 0.0 
1.09131 -0.0134107 0.0 
0.111695 -0.00635782 0.0 
1.14221e-80 -1.68143e-82 0.0 
-9.8002e-112 9.74481e-114 0.0 
0.183108 -0.000992684 0.0 
0.335476 0.0183482 0.0 
1.00641 0 0.0 
1.0025 0 0.0 
0.596206 0.309749 0.0 
1.59318e-174 -3.03656e-176 0.0 
0.38611 -0.0604162 0.0 
7.39047e-26 8.35974e-26 0.0 
0.862001 0.170467 0.0 
0.0388922 0.000871373 0.0 
0.098993 0.00652987 0.0 
0.117097 -0.00169895 0.0 
1.03343 -0.276399 0.0 
0.592718 0.0839132 0.0 
1.19856e-206 -6.89206e-207 0.0 
0.768388 -0.0424145 0.0 
0.13514 -0.0200005 0.0 
0.0730423 -0.00336628 0.0 
1.58727e-149 5.56432e-150 0.0 
0.206182 0.00890123 0.0 
0.0948574 0.00491073 0.0 
2.75782e-77 -4.05975e-79 0.0 
1.00861 -0.008205 0.0 
0.241895 0.00511962 0.0 
0.0688268 0.0163076 0.0 
0.0306264 -0.00379217 0.0 
4.35316e-11 -3.45311e-12 0.0 
2.3022e-213 4.68301e-214 0.0 
2.05508e-214 3.63191e-215 0.0 
0.472564 0.0250669 0.0 
0.149126 0.00693348 0.0 
0.568121 0.144054 0.0 
0.305015 -0.0495156 0.0 
1.08203 -0.186442 0.0 
0.249216 0.0251729 0.0 
0.772272 -0.0312858 0.0 
0.154593 0.00252091 0.0 
4.73137e-200 -2.57394e-201 0.0 
1.56567e-86 1.88712e-87 0.0 
0.135441 0.00577523 0.0 
1.07173 -0.19335 0.0 
1.9974e-192 1.71224e-193 0.0 
0.138946 -0.00781173 0.0 
0.836059 -0.0438729 0.0 
1.07482 0.0221101 0.0 
0.619738 0.256532 0.0 
0.0196071 0.000708425 0.0 
0.929637 0.0175603 0.0 
0.284404 0.0155895 0.0 
0.0497696 -0.00783174 0.0 
0.228605 0.0257325 0.0 
0.812639 0.167234 0.0 
1 0 0.0 
-1.89417e-62 -2.30327e-63 0.0 
0.146632 -0.0212641 0.0 
0.773453 0.108094 0.0 
0.133905 -0.000278368 0.0 
0.240944 -0.0178293 0.0 
0.0562226 0.0025738 0.0 
1.06821 -0.0232907 0.0 
0.203323 0.00757818 0.0 
0.0162767 0.000457115 0.0 
0.379031 0.0284513 0.0 
0.00146723 -0.00016778 0.0 
0.102554 0.000352384 0.0 
0.999488 0.00122058 0.0 
1.06932 -0.22866 0.0 
0.313165 0.00235361 0.0 
1.02044 0.271178 0.0 
1.09552 0.183794 0.0 
0.00344921 -0.00040346 0.0 
1.00072 0.00206791 0.0 
0.962847 0.00615032 0.0 
1.03244 -0.0785756 0.0 
-6.94871e-91 6.83578e-92 0.0 
0.679501 0.0215838 0.0 
0.200309 0.0179782 0.0 
0.761333 -0.102624 0.0 
1.06587 -0.13466 0.0 
0.0243249 0.00118572 0.0 
0.832175 0.226737 0.0 
0.707434 0.0928212 0.0 
2.67175e-166 2.32352e-167 0.0 
0.22128 0.00427507 0.0 
-2.32502e-219 2.98394e-220 0.0 
0.753865 -0.0373417 0.0 
0.433603 -0.0160336 0.0 
0.311561 -0.0637232 0.0 
0.400994 -0.0103238 0.0 
0.0158352 -0.00322425 0.0 
0.283615 0.0418266 0.0 
0.0100605 0.000958502 0.0 
0.379847 0.0485359 0.0 
5.22666e-209 -2.99894e-209 0.0 
1.0004 -0.000195463 0.0 
0.800487 -0.108577 0.0 
0.0541747 -0.00203521 0.0 
0.998464 -0.00141456 0.0 
0.745938 -0.13813 0.0 
0.0135023 -0.00187897 0.0 
1.08223 -0.00870705 0.0 
0.034917 0.0332639 0.0 
0.0115265 -0.00129832 0.0 
0.516158 -0.0171053 0.0 
-1.23289e-98 -1.08734e-99 0.0 
0.736968 0.0920215 0.0 
0.722872 -0.11571 0.0 
0.0789008 -0.0136141 0.0 
0.778004 -0.0937032 0.0 
0.0821654 0.00392759 0.0 
3.42283e-206 6.03639e-207 0.0 
0.0158681 -0.000539063 0.0 
0.925006 -0.132225 0.0 
7.86358e-46 -7.60837e-47 0.0 
0.259687 -0.021942 0.0 
0.0448903 -0.00661621 0.0 
0.877611 0.0300319 0.0 
0.619371 0.0922146 0.0 
1.45582e-12 -1.96255e-13 0.0 
0.355626 -0.0595367 0.0 
0.0953173 -0.0148075 0.0 
0.0080198 0.000950693 0.0 
-7.23599e-139 -6.31327e-140 0.0 
0.615404 -0.00568365 0.0 
0.662206 0.151981 0.0 
0.127954 0.0487111 0.0 
0.801047 0.243937 0.0 
0.645846 -0.0804938 0.0 
1.0726 0.191017 0.0 
1.10989 0.166232 0.0 
0.724539 0.11821 0.0 
0.313562 -0.0422092 0.0 
0.518242 0.067817 0.0 
0.00732168 0.000475707 0.0 
0.192406 0.00836246 0.0 
0.674321 0.0961978 0.0 
0.721953 0.15288 0.0 
0.924685 -0.195892 0.0 
0.188529 -0.0155019 0.0 
0.115066 0.09925 0.0 
0.0764285 0.00386225 0.0 
0.449816 0.0171705 0.0 
1.04276 -0.0147604 0.0 
0.947393 -0.0585283 0.0 
3.86709e-218 -1.39702e-218 0.0 
0.794335 -0.0132464 0.0 
8.51574e-210 9.60108e-211 0.0 
0.518417 0.0488283 0.0 
0.0776305 0.00295972 0.0 
0.590592 -0.096578 0.0 
0.304407 0.00106647 0.0 
0.318172 0.000170352 0.0 
-1.11903e-145 2.20696e-146 0.0 
0.219906 0.00918177 0.0 
1.06585 -0.00210672 0.0 
0.263068 -0.0472324 0.0 
0.738314 -0.0423991 0.0 
0.327048 0.000300334 0.0 
4.03906e-72 2.78306e-73 0.0 
0.365951 0.0193575 0.0 
0.000286587 -7.22702e-06 0.0 
1.13779e-211 1.28279e-212 0.0 
0.0571247 -0.0110539 0.0 
-1.30567e-119 5.33878e-121 0.0 
1.06307 -0.246159 0.0 
0.878794 0.155072 0.0 
1.71485e-10 -2.53343e-12 0.0 
1.08771 0.0170653 0.0 
0.135078 0.141019 0.0 
-4.64004e-144 9.15117e-145 0.0 
0.108724 0.00524086 0.0 
1.09743 0.000920574 0.0 
0.999873 9.20381e-05 0.0 
0.332894 -0.206705 0.0 
0.800615 0.0712138 0.0 
9.88213e-52 1.15451e-51 0.0 
0.0956075 0.00488793 0.0 
0.409171 -0.0269845 0.0 
0.017956 -0.00193351 0.0 
0.260334 -0.0114527 0.0 
-1.33867e-93 -1.61172e-95 0.0 
-7.11342e-105 4.66088e-105 0.0 
0.332315 0.00319702 0.0 
0.677201 0.35073 0.0 
0.126716 0.0217524 0.0 
1.06225 -0.251225 0.0 
-5.30912e-109 3.47721e-109 0.0 
0.000568752 -3.73719e-06 0.0 
0.615203 0.305199 0.0 
0.536612 0.0219372 0.0 
1.00668 0.000302658 0.0 
0.194032 -0.0279178 0.0 
0.306296 -0.00459571 0.0 
0.000775182 0.00010226 0.0 
0.173772 -0.0192727 0.0 
-9.05039e-135 7.13851e-136 0.0 
-3.63542e-141 -3.17184e-142 0.0 
0.22411 0.00836537 0.0 
-1.53292e-138 -1.33745e-139 0.0 
2.25786e-210 1.10683e-210 0.0 
0.780535 0.181349 0.0 
0.87804 -0.164321 0.0 
0.0843423 -0.00247732 0.0 
-8.68567e-97 1.53601e-97 0.0 
0.273352 -0.0370236 0.0 
0.982222 0.060526 0.0 
6.37839e-162 1.41157e-163 0.0 
1.0005 -0.00058222 0.0 
-6.0843e-162 2.79532e-163 0.0 
0.99545 -0.134063 0.0 
0.0234138 -0.000654909 0.0 
0.0531004 0.000251759 0.0 
1.00236 -0.000383724 0.0 
0.473366 -0.0516465 0.0 
1.00054 -0.000312218 0.0 
0.167659 0.0142542 0.0 
0.0140623 0.00116814 0.0 
-2.48882e-157 -1.81629e-158 0.0 
0.396286 0.0650242 0.0 
0.000711057 -0.000114824 0.0 
0.0661411 0.000774885 0.0 
1.09537e-87 1.31959e-88 0.0 
-8.53052e-78 1.35392e-77 0.0 
0.60661 0.336891 0.0 
0.558669 -0.0114657 0.0 
0.454601 0.0406759 0.0 
0.105073 0.0013863 0.0 
0.902653 0.0495754 0.0 
0.36122 0.184865 0.0 
0.0724906 -0.000577737 0.0 
0.000834608 -9.16177e-05 0.0 
0.483502 -0.451303 0.0 
0.999953 9.54917e-05 0.0 
0.781009 -0.0843698 0.0 
0.017421 -0.00201148 0.0 
0.744714 -0.0936383 0.0 
5.60321e-07 2.79054e-08 0.0 
1.43354e-213 5.51114e-214 0.0 
0.0482503 0.00211223 0.0 
-6.18444e-123 -4.09735e-124 0.0 
1.00009 -6.59809e-05 0.0 
0.905813 -0.244895 0.0 
0.0992521 -0.0173996 0.0 
0.386425 -0.0260197 0.0 
0.434588 0.041938 0.0 
0.296756 0.0301027 0.0 
0.07463 0.00430288 0.0 
0.545386 0.015273 0.0 
0.465226 -0.0132432 0.0 
1.08726 -0.010404 0.0 
0.38276 -0.00742732 0.0 
0.898189 0.121329 0.0 
0.407078 -0.0313916 0.0 
1.00596 0 0.0 
0.0487638 -0.0110132 0.0 
0.0170894 -0.00242751 0.0 
0.999957 0 0.0 
6.27048e-56 4.13231e-57 0.0 
0.389846 0.0341351 0.0 
0.0159471 -0.00124851 0.0 
0.144237 -0.0344635 0.0 
0.124103 -0.00167353 0.0 
0.753504 0.275192 0.0 
-1.14338e-69 1.38238e-70 0.0 
0.166978 0.00439576 0.0 
0.42794 -0.0548298 0.0 
0.879146 -0.0984263 0.0 
3.33879e-213 2.69416e-214 0.0 
0.0359565 -0.00452727 0.0 
0.0175805 0.000117661 0.0 
0.479854 -0.00754923 0.0 
-7.74382e-122 1.34071e-122 0.0 
0.135167 -0.00401499 0.0 
0.296386 -0.0159979 0.0 
1.0723 -0.0151939 0.0 
0.200219 -0.298271 0.0 
-2.4715e-102 7.07576e-103 0.0 
4.13016e-213 1.58781e-213 0.0 
0.111531 -0.00462322 0.0 
0.085703 -0.0116824 0.0 
1.00599 8.08279e-05 0.0 
0.121159 -0.0202915 0.0 
0.227164 -0.0183465 0.0 
1.07564 -0.0561803 0.0 
0.999812 0.000243804 0.0 
0.0554096 -0.00516874 0.0 
0.73211 -0.435422 0.0 
0.986023 -0.214342 0.0 
0.0224709 0.000956462 0.0 
0.159453 0.00786931 0.0 
0.0916683 -0.00216634 0.0 
1.14494e-204 -3.1689e-205 0.0 
0.0578318 -0.00661226 0.0 
-7.99843e-86 4.46428e-86 0.0 
0.778212 -0.052684 0.0 
0.14384 0.00232785 0.0 
0.849147 -0.00637455 0.0 
-1.94764e-83 -1.30885e-84 0.0 
0.12321 0.00617983 0.0 
0.174913 0.00932441 0.0 
0.509199 -0.0649845 0.0 
0.495587 0.0248081 0.0 
0.999988 0 0.0 
3.11533e-186 1.71423e-187 0.0 
0.732946 0.329198 0.0 
0.650613 0.091374 0.0 
0.47281 0.11536 0.0 
3.18397e-213 3.58974e-214 0.0 
0.0174268 0.00129661 0.0 
0.794313 0.0408876 0.0 
0.825115 0.0795707 0.0 
1.09046 0.0142094 0.0 
0.215947 0.00646049 0.0 
-1.96035e-59 -2.25329e-60 0.0 
2.58869e-205 9.95834e-206 0.0 
0.0186876 -0.00151809 0.0 
1.3064e-212 1.39981e-213 0.0 
0.869994 0.344592 0.0 
0.51525 0.089735 0.0 
0.101182 -0.00892333 0.0 
0.999873 -6.34609e-06 0.0 
4.60049e-158 -1.04289e-159 0.0 
-9.25206e-68 -9.10203e-69 0.0 
3.54563e-05 -1.26475e-05 0.0 
0.320071 0.00639216 0.0 
0.0130176 -0.00180069 0.0 
0.0258699 0.0017654 0.0 
0.999176 0.00620251 0.0 
0.139517 -0.00634445 0.0 
0.0141335 0.0015333 0.0 
0.000127201 8.53341e-06 0.0 
0.0135828 -0.000912365 0.0 
0.311109 0.263659 0.0 
0.973822 -0.187544 0.0 
-2.75986e-119 -2.57912e-120 0.0 
0.809591 -0.12132 0.0 
0.393811 0.0339586 0.0 
-1.90948e-103 -2.29813e-105 0.0 
-2.22917e-66 -1.17661e-67 0.0 
0.792084 0.33923 0.0 
0.989867 0.0144552 0.0 
5.83946e-43 4.05205e-44 0.0 
0.201965 0.0133736 0.0 
0.0377473 -0.0027841 0.0 
0.597528 0.0728794 0.0 
0.485324 0.0429293 0.0 
0.142792 0.00425265 0.0 
0.130396 0.00479968 0.0 
0.637399 -0.0551207 0.0 
-3.37644e-112 -3.43236e-114 0.0 
0.0543798 0.00191608 0.0 
0.23307 -0.104503 0.0 
0.608221 0.313139 0.0 
1.02064 0.00257497 0.0 
0.517937 0.0394171 0.0 
0.531832 0.084961 0.0 
0.412883 -0.0605411 0.0 
-1.45292e-219 2.22396e-220 0.0 
1.24702e-206 6.14903e-207 0.0 
0.805105 0.246797 0.0 
0.000220187 2.84647e-05 0.0 
0.999701 0.00329046 0.0 
0.00263865 -0.000408989 0.0 
0.0715688 0.00381805 0.0 
2.99226e-206 1.47676e-206 0.0 
0.492188 -0.0612111 0.0 
0.182382 0.00998682 0.0 
0.669429 0.0615408 0.0 
2.36124e-206 3.25917e-207 0.0 
0.000624476 6.3028e-05 0.0 
3.29407e-208 -1.65729e-209 0.0 
1.00119 -0.000800477 0.0 
1.00666 0.0537123 0.0 
4.52059e-206 -3.27091e-206 0.0 
0.313051 0.00643923 0.0 
0.707869 0.0695844 0.0 
0.512968 0.0438613 0.0 
0.169253 -0.0313911 0.0 
0.613553 -0.0635105 0.0 
0.841688 0.0729741 0.0 
0.223416 0.0255917 0.0 
0.0167826 0.000684641 0.0 
0.248099 -0.0337002 0.0 
0.0109851 0.00154603 0.0 
2.63424e-198 -5.16178e-199 0.0 
0.251792 -0.0349557 0.0 
0.862513 -0.0233347 0.0 
1.00077 0 0.0 
0.730317 -0.000680202 0.0 
0.463505 0.0408988 0.0 
0.15971 -0.0202751 0.0 
-6.52207e-152 -5.69039e-153 0.0 
0.226899 0.0339606 0.0 
0.221291 0.00482214 0.0 
0.176685 0.0443567 0.0 
7.74097e-155 1.71311e-156 0.0 
-1.4356e-145 2.83132e-146 0.0 
0.80872 -0.141004 0.0 
0.179784 -0.0232244 0.0 
0.322429 -0.0428061 0.0 
0.564416 0.0326769 0.0 
0.836202 -0.0634355 0.0 
0.000352866 1.78399e-05 0.0 
0.679828 0.051908 0.0 
-2.14787e-151 -2.48773e-152 0.0 
0.0981611 -0.00736002 0.0 
0.253315 -0.00370223 0.0 
0.890206 0.321036 0.0 
0.994854 0.00494179 0.0 
0.759624 0.194383 0.0 
0.00416867 -0.000369529 0.0 
0.754749 0.0344676 0.0 
0.992995 0.285289 0.0 
1.01122 -0.000954994 0.0 
2.97924e-209 5.25405e-210 0.0 
0.72476 0.233512 0.0 
0.174656 -0.00747296 0.0 
1.0865 0.0463123 0.0 
0.728531 0.0319921 0.0 
1.15321e-212 -4.12917e-213 0.0 
0.762699 0.325097 0.0 
0.601872 0.059404 0.0 
3.74722e-207 -1.34172e-207 0.0 
-2.45234e-132 1.93429e-133 0.0 
0.363385 -0.0307223 0.0 
0.161402 0.00672373 0.0 
0.319124 0.0154123 0.0 
1.09618 -0.166623 0.0 
0.685609 0.0418691 0.0 
8.12966e-28 4.32139e-28 0.0 
0.363437 0.00293248 0.0 
0.999957 -6.95972e-06 0.0 
0.118077 0.0127817 0.0 
0.942755 -0.0950243 0.0 
1.17118e-11 2.15106e-12 0.0 
1.3367e-167 1.16248e-168 0.0 
1.00005 5.27609e-05 0.0 
0.0220683 0.000635332 0.0 
0.616513 0.0301094 0.0 
0.92453 -0.081082 0.0 
0.753411 0.0513055 0.0 
0.0955707 0.0316882 0.0 
0.488511 0.0179314 0.0 
0.927618 0.0187862 0.0 
0.360473 0.0158882 0.0 
0.319634 0.00404475 0.0 
0.863163 -0.0382032 0.0 
0.347024 -0.0127301 0.0 
1.00007 -0.00041809 0.0 
0.127233 0.0177023 0.0 
0.50546 0.00563266 0.0 
0.622105 -0.00911266 0.0 
6.03487e-209 2.32006e-209 0.0 
0.218166 -0.037814 0.0 
0.712874 -0.381713 0.0 
0.404949 0.0347067 0.0 
0.769223 0.0342832 0.0 
0.839344 -0.224607 0.0 
0.143071 0.00770599 0.0 
0.101515 -0.00881761 0.0 
0.0082359 -0.00131623 0.0 
0.0103321 -0.00178829 0.0 
0.133339 -0.0179549 0.0 
0.0233713 -0.00251508 0.0 
0.598131 -0.351274 0.0 
0.999982 2.60094e-05 0.0 
0.631166 -0.0740776 0.0 
0.660492 -0.28974 0.0 
1.07622 -0.0290877 0.0 
2.77146e-209 2.5505e-210 0.0 
0.00990805 -0.000855981 0.0 
0.145773 -0.246893 0.0 
1.07483 -0.00600116 0.0 
0.478479 0.0374985 0.0 
0.848507 -0.0703315 0.0 
0.154844 -0.00261781 0.0 
0.99993 -2.38865e-05 0.0 
0.000529079 -2.45995e-05 0.0 
2.49944e-210 -4.46938e-211 0.0 
0.719516 -0.270674 0.0 
0.999993 7.25402e-05 0.0 
3.37285e-210 3.78043e-211 0.0 
0.0164492 -0.00208599 0.0 
0.370576 -0.000456328 0.0 
0.023977 0.000375307 0.0 
0.0236966 0.00124167 0.0 
2.95036e-197 -5.77755e-198 0.0 
0.387093 -0.00577089 0.0 
0.812847 0.0021105 0.0 
0.272045 -0.000663461 0.0 
0.251351 0.0072559 0.0 
1.00189 -0.028138 0.0 
0.777483 0.259635 0.0 
0.717233 0.33459 0.0 
0.0314951 0.000215876 0.0 
0.080287 0.00415492 0.0 
0.648288 0.253423 0.0 
0.741184 -0.128641 0.0 
0.712283 0.26796 0.0 
1.12719 0.114429 0.0 
0.97217 0.293567 0.0 
4.17521e-08 -1.48135e-09 0.0 
5.62901e-206 2.57013e-206 0.0 
5.86473e-08 6.49622e-09 0.0 
1.00768 -0.0290139 0.0 
1.03413 -0.00362408 0.0 
0.0832416 -0.00953984 0.0 
1.77234e-44 -9.27036e-46 0.0 
3.43103e-208 1.31904e-208 0.0 
0.779985 0.12299 0.0 
0.502571 0.0965583 0.0 
0.0184969 0.000841451 0.0 
0.0133822 -0.00157497 0.0 
0.0167885 -0.00188963 0.0 
0.452287 0.00965802 0.0 
0.016185 0.00162446 0.0 
1.68817e-05 2.10648e-06 0.0 
0.999655 0.000790703 0.0 
4.89587e-12 4.24186e-12 0.0 
0.467982 0.0260387 0.0 
0.99999 -0.000238757 0.0 
0.78643 0.00930451 0.0 
1.30307e-205 -7.49287e-206 0.0 
0.677239 0.238514 0.0 
0.871354 -0.0926617 0.0 
-4.13042e-98 -4.97182e-100 0.0 
0.412825 0.00219902 0.0 
0.963991 -0.237495 0.0 
0.114503 0.00665453 0.0 
1.00134 0 0.0 
-2.90604e-147 5.73134e-148 0.0 
1.1105 0.128933 0.0 
0.764821 -0.0578811 0.0 
0.512766 -0.0547931 0.0 
0.710896 0.373783 0.0 
2.57059e-13 -1.26741e-14 0.0 
0.759321 -0.0526179 0.0 
2.30263e-212 8.03535e-213 0.0 
3.45948e-202 -1.88201e-203 0.0 
1.0872 -0.0984076 0.0 
0.135125 0.00331272 0.0 
1.07743 0.11769 0.0 
0.728753 0.305321 0.0 
1.00034 -0.000303178 0.0 
0.996559 0.0191782 0.0 
-2.66712e-141 7.36004e-142 0.0 
0.0108071 -0.00175625 0.0 
0.760216 0.0360208 0.0 
1.02285 -0.19554 0.0 
0.274358 0.0138724 0.0 
0.611537 -0.296007 0.0 
0.323564 0.0367498 0.0 
0.0762402 0.000559652 0.0 
1.02829 -0.253401 0.0 
-1.81721e-115 3.14617e-116 0.0 
0.872157 0.111447 0.0 
-6.95673e-220 5.12672e-221 0.0 
0.311584 0.00729257 0.0 
-6.14409e-143 -5.36061e-144 0.0 
1.00215 -0.00281826 0.0 
1.0691 0.000528202 0.0 
0.546844 0.101816 0.0 
0.856754 0.148758 0.0 
3.20223e-208 -5.76046e-209 0.0 
0.929222 -0.268452 0.0 
0.00888485 -0.000123466 0.0 
0.0364387 0.00166088 0.0 
-3.17603e-143 2.5051e-144 0.0 
1.60233e-209 -6.91213e-210 0.0 
1.00605 -0.00458524 0.0 
-3.57298e-160 1.00628e-160 0.0 
1.4394e-28 1.27071e-29 0.0 
0.726696 0.344465 0.0 
0.585069 -0.433966 0.0 
1.00007 -0.000628274 0.0 
1.00029 0 0.0 
0.0192287 0.00107867 0.0 
0.450519 -0.105194 0.0 
0.79203 0.325728 0.0 
0.542705 -0.0380944 0.0 
0.170799 0.0069253 0.0 
0.253419 -0.0247004 0.0 
0.0729159 -0.00947142 0.0 
1.01847 0.0150334 0.0 
0.737694 0.0554561 0.0 
0.510036 -0.014957 0.0 
-3.26532e-138 4.54982e-140 0.0 
0.495921 0.000669295 0.0 
0.999739 0.000559044 0.0 
0.782892 0.363717 0.0 
0.846629 0.140849 0.0 
0.551309 -0.0625532 0.0 
1.92801e-207 -1.10864e-207 0.0 
0.3224 -0.0284115 0.0 
0.496761 0.00362516 0.0 
0.0142552 0.00136995 0.0 
1.12676e-203 5.93515e-205 0.0 
1.00872 -0.00316043 0.0 
0.475689 -0.0840704 0.0 
0.000207277 9.4984e-06 0.0 
0.867622 0.0810232 0.0 
0.701617 0.174758 0.0 
0.0129559 -0.00131692 0.0 