<VTKFile type="UnstructuredGrid" version="0.1" byte_order="LittleEndian">
  <UnstructuredGrid>
    <Piece NumberOfPoints="12545" NumberOfCells="24935">
      <Points>
        <DataArray type = "Float64" NumberOfComponents="3" format="ascii">
0 0 0.0 
14 0 0.0 
14 8 0.0 
0 8 0.0 
4.38439 3.94377 0.0 
12.8057 1.94595 0.0 
0.483697 5.24337 0.0 
4.16418 4.04914 0.0 
4.62675 4.03893 0.0 
4.86253 4.02561 0.0 
4.08083 4.04938 0.0 
4.08596 3.93674 0.0 
4.02848 4.02971 0.0 
4.4023 3.95598 0.0 
9.7496 4.12406 0.0 
4.31481 2.21348 0.0 
4.05477 4.02613 0.0 
11.4574 5.56341 0.0 
8.29677 5.77683 0.0 
4.11429 3.99572 0.0 
7.25884 4.21713 0.0 
4.00922 3.99881 0.0 
4.02803 4.04844 0.0 
4.00283 3.92667 0.0 
4.01927 3.99345 0.0 
4.00232 3.99254 0.0 
13.3499 2.14382 0.0 
4.04909 3.9604 0.0 
3.98196 3.98783 0.0 
5.00749 4.02107 0.0 
4.36023 4.05917 0.0 
4.03555 4.04122 0.0 
4.03416 4.05264 0.0 
4.12387 3.9193 0.0 
5.00166 3.98677 0.0 
4.06071 3.97225 0.0 
4.15118 4.05788 0.0 
4.04636 4.02869 0.0 
11.717 4.54429 0.0 
4.52742 3.84747 0.0 
4.02495 4.02882 0.0 
3.99967 4.0114 0.0 
4.36108 4.08181 0.0 
4.62278 3.95949 0.0 
4.99901 3.9997 0.0 
14 2.71622 0.0 
14 6.11123 0.0 
4.06543 3.97141 0.0 
3.96293 3.99513 0.0 
8.52848 7.37276 0.0 
4.12882 4.06216 0.0 
5.51379 7.4427 0.0 
3.99922 3.99464 0.0 
4.81387 3.98984 0.0 
3.99441 4.00023 0.0 
4.00359 4.03909 0.0 
14 5.21618 0.0 
8.55881 8 0.0 
4.04723 3.95307 0.0 
4.03884 3.97987 0.0 
4.376 4.06932 0.0 
13.1327 4.03526 0.0 
4.01308 4.00992 0.0 
4.38183 3.95813 0.0 
4.01575 3.99896 0.0 
4.27441 4.05318 0.0 
4.23725 3.95116 0.0 
4.84202 4.028 0.0 
5.00128 3.99352 0.0 
4.18141 4.05241 0.0 
11.1728 4.05664 0.0 
5.04845 4.04311 0.0 
4.01682 3.98064 0.0 
3.96646 3.95518 0.0 
5.01225 4.00853 0.0 
4.29944 3.9692 0.0 
4.17447 4.07538 0.0 
4.47 3.97303 0.0 
3.99003 3.89863 0.0 
10.1833 0.248119 0.0 
4.02875 4.04115 0.0 
4.23079 3.967 0.0 
4.15105 3.95796 0.0 
3.7391 1.31631 0.0 
1.26284 5.53443 0.0 
9.17503 4.56292 0.0 
4.05866 3.98032 0.0 
4.61659 4.05388 0.0 
4.51685 4.17493 0.0 
5.1819 4.12653 0.0 
4.61931 3.97956 0.0 
4.97371 4.00656 0.0 
4.12124 3.98374 0.0 
4.94471 3.99606 0.0 
4.15544 3.92346 0.0 
4.20102 4.03236 0.0 
5.00847 4.01115 0.0 
10.4294 5.13059 0.0 
4.02244 4.02798 0.0 
4.09476 4.08011 0.0 
7.64366 8 0.0 
5.0905 2.15481 0.0 
3.99804 4.00956 0.0 
5.01331 3.98969 0.0 
5.03704 4.00708 0.0 
4.54551 3.9773 0.0 
4.12754 3.92728 0.0 
1.73113 1.21474 0.0 
4.79296 3.98918 0.0 
4.9822 4.01335 0.0 
5.0027 3.99265 0.0 
4.51495 4.06328 0.0 
4.05147 4.01969 0.0 
4.00513 3.99 0.0 
4.24611 4.04104 0.0 
3.99252 4.00665 0.0 
4.00947 4.02943 0.0 
11.9981 0 0.0 
4.00675 3.9944 0.0 
5.02294 4.01619 0.0 
4.05784 3.98854 0.0 
3.84288 3.97339 0.0 
4.76346 3.98744 0.0 
4.10081 3.94382 0.0 
4.58485 4.05708 0.0 
3.26776 4.2006 0.0 
5.00368 4.02219 0.0 
10.7396 5.64099 0.0 
4.81017 4.03235 0.0 
4.17928 4.0787 0.0 
4.66509 3.98288 0.0 
4.95001 4.03154 0.0 
3.9818 4.03131 0.0 
3.96476 4.03852 0.0 
4.74571 4.04057 0.0 
3.97233 4.04194 0.0 
6.74712 7.48617 0.0 
1.06014 3.31576 0.0 
4.00621 4.04562 0.0 
4.34696 3.96943 0.0 
4.91346 3.99457 0.0 
3.91694 4.75073 0.0 
4.1209 4.04182 0.0 
1.34309 2.0476 0.0 
4.0488 4.03914 0.0 
4.03066 4.0465 0.0 
4.09157 3.91748 0.0 
4.18327 4.04509 0.0 
4.24288 0.380531 0.0 
13.2653 2.91651 0.0 
4.00756 4.02287 0.0 
3.99686 4.00472 0.0 
4.23103 3.92099 0.0 
4.17857 3.91238 0.0 
4.4028 4.09692 0.0 
4.02139 3.99207 0.0 
4.99742 4.01847 0.0 
4.3219 4.0739 0.0 
4.10608 4.02928 0.0 
4.50985 7.40044 0.0 
3.97596 3.95582 0.0 
4.15942 4.03647 0.0 
4.87851 4.02146 0.0 
5.05919 4.01855 0.0 
2.15923 7.15628 0.0 
9.48354 3.49285 0.0 
3.97909 4.02017 0.0 
4.13742 3.95376 0.0 
7.18887 6.80823 0.0 
1.24078 0.550265 0.0 
9.10545 7.45594 0.0 
2.38032 0.204862 0.0 
4.01517 4.03055 0.0 
3.99882 3.99972 0.0 
4.09043 3.96889 0.0 
3.99908 3.98836 0.0 
5.00397 3.99911 0.0 
12.8202 5.46726 0.0 
4.99938 3.99739 0.0 
4.1938 4.04426 0.0 
4.21507 3.9482 0.0 
4.02364 1.36307 0.0 
4.97222 4.02124 0.0 
4.58904 3.90186 0.0 
5.01586 4.00977 0.0 
4.39932 4.17113 0.0 
4.89741 3.9933 0.0 
11.9473 3.59927 0.0 
5.1327 4.04445 0.0 
4.88992 4.0683 0.0 
4.90144 4.01888 0.0 
4.10016 3.95849 0.0 
4.63972 4.05206 0.0 
3.9901 3.98452 0.0 
4.97439 3.96659 0.0 
4.01842 3.9913 0.0 
4.63537 3.98127 0.0 
3.97185 4.00557 0.0 
4.01283 3.98642 0.0 
4.14404 3.96678 0.0 
4.49801 3.96723 0.0 
4.67895 4.01774 0.0 
3.99899 4.01393 0.0 
3.99483 4.02144 0.0 
7.41748 3.97669 0.0 
13.2253 0 0.0 
9.50167 4.49149 0.0 
4.14079 3.99272 0.0 
4.04578 3.97362 0.0 
5.08198 4.04957 0.0 
5.02947 4.00625 0.0 
4.07912 4.02843 0.0 
4.23007 4.06918 0.0 
4.50794 4.06267 0.0 
4.08711 3.98632 0.0 
4.02676 4.02752 0.0 
4.32279 4.06081 0.0 
4.9542 4.00873 0.0 
3.98048 4.05294 0.0 
4.00295 4.01587 0.0 
4.13386 4.04638 0.0 
3.98816 4.01224 0.0 
4.50982 3.96368 0.0 
0.848755 1.28674 0.0 
4.0341 4.01314 0.0 
3.99752 4.02893 0.0 
4.01884 3.99521 0.0 
4.01748 3.97335 0.0 
3.98628 3.99582 0.0 
4.15854 4.05966 0.0 
4.80414 3.95195 0.0 
4.02649 4.01193 0.0 
5.00674 4.00102 0.0 
4.98555 3.99779 0.0 
4.86737 3.99282 0.0 
9.55669 5.91713 0.0 
5.02611 4.00685 0.0 
4.7595 3.98719 0.0 
4.3171 4.12404 0.0 
4.32944 3.96871 0.0 
3.93549 3.94275 0.0 
4.77225 3.96575 0.0 
4.01932 3.98151 0.0 
5.10311 4.0306 0.0 
4.07617 4.05139 0.0 
4.74183 4.04111 0.0 
4.26481 3.96872 0.0 
4.78157 3.98904 0.0 
4.17652 4.01534 0.0 
4.18405 4.07138 0.0 
5.01057 4.00638 0.0 
4.18612 3.96808 0.0 
4.01098 3.98653 0.0 
4.786 4.09739 0.0 
7.23965 3.56451 0.0 
8.70888 3.99593 0.0 
3.9961 4.02386 0.0 
5.01338 4.01449 0.0 
7.47511 4.12068 0.0 
5.18793 4.05304 0.0 
3.98111 4.00805 0.0 
7.41889 4.17353 0.0 
3.99352 3.97666 0.0 
0.747562 5.69493 0.0 
4.19604 3.97661 0.0 
4.01707 3.9715 0.0 
5.047 4.06972 0.0 
8.28094 0.596167 0.0 
3.98586 3.96653 0.0 
8.66724 7.12549 0.0 
11.3109 3.9311 0.0 
4.54964 4.06056 0.0 
4.00251 4.00671 0.0 
4.99696 4.01379 0.0 
4.02402 4.04636 0.0 
4.90134 4.01812 0.0 
4.78643 3.9887 0.0 
4.06133 4.06985 0.0 
5.04267 4.00787 0.0 
3.99417 4.04189 0.0 
7.6181 7.09785 0.0 
4.71441 7.15979 0.0 
3.99997 3.99241 0.0 
4.41092 4.08744 0.0 
4.11733 3.27019 0.0 
3.98918 4.03714 0.0 
6.02554 0.627646 0.0 
4.01059 4.0357 0.0 
0.206973 1.52205 0.0 
4.27012 4.05517 0.0 
4.11978 4.0523 0.0 
4.00056 4.04248 0.0 
4.07348 3.97871 0.0 
4.18416 4.06281 0.0 
3.9896 4.00463 0.0 
1.5342 5.64886 0.0 
3.98613 3.98439 0.0 
4.08017 4.06013 0.0 
4.00273 4.04763 0.0 
4.02428 4.00868 0.0 
4.35741 4.02375 0.0 
3.9831 3.98331 0.0 
4.2125 3.97448 0.0 
3.98643 3.99986 0.0 
4.56409 3.94817 0.0 
4.18718 3.94401 0.0 
3.99581 3.98523 0.0 
4.37524 3.97051 0.0 
4.94587 4.01145 0.0 
3.98481 4.00073 0.0 
3.97761 4.0047 0.0 
8.39153 6.28241 0.0 
4.73748 4.0407 0.0 
4.11077 4.06077 0.0 
3.98558 4.00796 0.0 
4.0343 3.76211 0.0 
4.57874 3.97823 0.0 
4.05951 3.97283 0.0 
4.63269 3.98147 0.0 
4.89768 3.99378 0.0 
4.24027 3.9684 0.0 
9.04276 5.96039 0.0 
4.95587 3.99706 0.0 
3.99742 4.04784 0.0 
5.00018 3.98426 0.0 
4.78474 4.03516 0.0 
4.02073 3.98265 0.0 
4.27037 4.11663 0.0 
4.02862 4.02722 0.0 
4.01529 4.02228 0.0 
4.03762 4.0291 0.0 
4.02241 4.04141 0.0 
3.9487 4.03134 0.0 
4.02972 4.05235 0.0 
4.11002 3.98431 0.0 
4.01777 4.04818 0.0 
4.05811 3.97305 0.0 
5.04509 4.05427 0.0 
4.0266 3.96232 0.0 
4.32824 4.07775 0.0 
4.10695 3.94953 0.0 
13.0064 4.46872 0.0 
4.97085 3.98059 0.0 
4.28117 3.92206 0.0 
4.03778 3.99834 0.0 
4.25393 3.92098 0.0 
4.47667 4.04469 0.0 
4.27242 3.94793 0.0 
4.98817 4.01929 0.0 
3.95357 4.06538 0.0 
4.09231 4.04955 0.0 
3.99463 4.03164 0.0 
3.70091 4.32411 0.0 
4.50431 3.97516 0.0 
1.32075 0.258254 0.0 
4.00572 3.98505 0.0 
4.16593 3.9672 0.0 
10.7084 2.37312 0.0 
3.97854 3.92996 0.0 
3.99904 3.97967 0.0 
3.94862 4.04213 0.0 
13.0139 5.08591 0.0 
5.00079 3.98878 0.0 
3.97707 4.01347 0.0 
5.4003 4.12802 0.0 
10.8652 0 0.0 
4.26714 4.0438 0.0 
8.94038 7.70202 0.0 
2.33056 5.57699 0.0 
4.07157 4.04355 0.0 
5.65359 6.57916 0.0 
4.3892 4.06932 0.0 
5.03166 4.01788 0.0 
10.8478 4.42307 0.0 
5.00794 4.01633 0.0 
3.97614 4.01755 0.0 
5.01715 4.01877 0.0 
5.46984 4.17168 0.0 
5.0041 4.00505 0.0 
9.15388 3.83278 0.0 
6.8836 2.98306 0.0 
4.05996 4.02956 0.0 
4.0725 4.06182 0.0 
13.3365 3.96955 0.0 
4.05016 4.02449 0.0 
8.98125 6.17249 0.0 
7.41602 0 0.0 
5.03099 4.00231 0.0 
4.26326 3.96736 0.0 
4.00418 3.99108 0.0 
4.99485 4.00642 0.0 
4.51975 3.97523 0.0 
4.02297 4.02309 0.0 
4.00635 4.01543 0.0 
4.61064 4.05423 0.0 
4.54057 4.06115 0.0 
11.9413 8 0.0 
6.71972 3.97809 0.0 
4.03831 3.95277 0.0 
4.24036 3.96759 0.0 
4.28981 4.11298 0.0 
12.6783 2.99524 0.0 
4.00032 4.00368 0.0 
4.01978 4.02634 0.0 
4.71932 3.98541 0.0 
1.90962 0.284072 0.0 
4.73855 3.98625 0.0 
4.04452 3.97043 0.0 
3.99511 3.99395 0.0 
4.91991 4.00498 0.0 
4.14347 4.06123 0.0 
4.10674 4.05496 0.0 
4.89135 4.15887 0.0 
4.4935 4.0726 0.0 
4.01594 3.97512 0.0 
3.97954 4.04522 0.0 
13.4854 0 0.0 
3.98276 4.03655 0.0 
3.97716 3.98171 0.0 
3.98686 4.01708 0.0 
5.00841 3.97606 0.0 
4.02944 6.04289 0.0 
4.92647 3.99553 0.0 
4.04122 3.94064 0.0 
4.096 3.95606 0.0 
4.53588 3.97708 0.0 
3.97814 4.00223 0.0 
4.59459 4.05576 0.0 
4.18919 3.9015 0.0 
4.47246 4.11771 0.0 
4.89873 4.17677 0.0 
4.58186 3.97871 0.0 
4.71918 4.04466 0.0 
1.43223 4.33786 0.0 
13.4902 5.59698 0.0 
4.0703 4.01847 0.0 
4.90249 3.96121 0.0 
8.21995 3.86827 0.0 
4.56807 1.3093 0.0 
4.99198 4.01221 0.0 
8.65482 3.84737 0.0 
8.51121 4.33185 0.0 
12.1347 7.75548 0.0 
4.40894 4.05264 0.0 
4.06875 4.00491 0.0 
4.19251 4.06232 0.0 
4.9301 3.98609 0.0 
4.15265 3.9871 0.0 
5.0336 4.03132 0.0 
0.42318 6.33854 0.0 
4.00773 3.97774 0.0 
4.9694 4.00723 0.0 
3.993 4.0076 0.0 
4.11494 4.08541 0.0 
5.01231 3.99799 0.0 
9.99655 6.76574 0.0 
4.06367 4.03668 0.0 
4.02013 3.99949 0.0 
3.87195 3.81945 0.0 
4.04343 3.976 0.0 
4.93872 3.99558 0.0 
5.0074 4.01223 0.0 
4.06717 4.11447 0.0 
3.99583 3.96703 0.0 
4.01332 4.02389 0.0 
4.36145 3.88436 0.0 
4.07954 4.06311 0.0 
4.84168 4.01839 0.0 
11.4683 0.367385 0.0 
4.8149 3.98945 0.0 
3.96506 4.00818 0.0 
4.01167 3.99263 0.0 
2.9785 4.96742 0.0 
[...]
<PointData>
  <DataArray type = "Float64" Name="Vitesse" NumberOfComponents="3" format="ascii">
1 0 0.0 
1.00755 0 0.0 
1.00611 0 0.0 
1 0 0.0 
0.441431 0.00497351 0.0 
1.00888 0.000150048 0.0 
0.999967 0.000645214 0.0 
-6.97907e-54 -1.20701e-54 0.0 
5.55797e-112 -6.41091e-113 0.0 
0.00664306 -0.000805635 0.0 
0.327623 0.0867341 0.0 
1.05044 -0.184607 0.0 
0.257993 0.128766 0.0 
0.240074 0.00561253 0.0 
0.868767 -0.00341217 0.0 
1.01082 -0.00724046 0.0 
0 0 0.0 
1.00837 -0.000634591 0.0 
1.00937 -0.00165565 0.0 
2.81646e-202 4.82617e-203 0.0 
0.995321 -0.00449389 0.0 
0 0 0.0 
0.837203 0.360354 0.0 
0.93778 -0.234392 0.0 
0 0 0.0 
0.159317 -0.183551 0.0 
1.00875 0.000211571 0.0 
0.823759 -0.203976 0.0 
0.590231 -0.228202 0.0 
0.0595349 -0.0182271 0.0 
0 0 0.0 
0.662661 0.27865 0.0 
0.869802 0.34882 0.0 
1.08877 -0.142607 0.0 
0.126302 0.0173709 0.0 
0.125744 -0.0187137 0.0 
0.0568906 0.00745105 0.0 
2.42408e-174 8.8735e-175 0.0 
1.01142 0.000158312 0.0 
1.0708 -0.00975272 0.0 
0.307091 0.165374 0.0 
0.220912 0.220998 0.0 
0.283057 0.00211523 0.0 
0.247415 0.00908809 0.0 
-1.41706e-19 -7.81405e-20 0.0 
1.00945 0.000250743 0.0 
1.00751 -0.000390679 0.0 
0.128263 -0.0206619 0.0 
0.670952 -0.0824628 0.0 
1.00818 -0.000424663 0.0 
0.396516 0.0730493 0.0 
1.0098 0.000303815 0.0 
0.192776 -0.293736 0.0 
0.00439979 -2.36776e-06 0.0 
0.208672 -0.157162 0.0 
0.714064 0.336233 0.0 
1.00707 -0.0013444 0.0 
1.00798 0 0.0 
0.991336 -0.260709 0.0 
8.69018e-15 -2.56033e-15 0.0 
0.0177136 -2.42129e-05 0.0 
0.842497 0.00084374 0.0 
0 0 0.0 
0.201791 0.00475691 0.0 
0 0 0.0 
0 0 0.0 
0.365766 -0.00494989 0.0 
0.00462817 -0.000524616 0.0 
0.0653906 0.0141113 0.0 
5.54276e-177 6.81405e-178 0.0 
0.806528 -0.00312086 0.0 
0.197472 -0.0263636 0.0 
0.39268 -0.169924 0.0 
0.811155 -0.189086 0.0 
0.0314126 -0.0105149 0.0 
0.000123548 3.49093e-06 0.0 
0.564263 0.0813172 0.0 
0.0186087 0.0014847 0.0 
0.945321 -0.176523 0.0 
1.00808 4.03116e-05 0.0 
0.733583 0.335491 0.0 
0.0137673 2.6831e-05 0.0 
0.309403 -0.0152419 0.0 
1.00573 -0.00365987 0.0 
0.999946 0.00202762 0.0 
1.00844 -0.00163769 0.0 
-1.82193e-109 4.14575e-110 0.0 
1.911e-34 -5.79078e-36 0.0 
1.11365 0.01183 0.0 
0.871755 -0.0444467 0.0 
0.0143723 0.000810594 0.0 
0.00194687 -0.00039453 0.0 
0 0 0.0 
0.00467289 0.000685611 0.0 
1.03667 -0.103222 0.0 
5.06152e-215 4.1012e-216 0.0 
0.0315113 -0.0142652 0.0 
1.01007 -0.000693811 0.0 
0.33304 0.177327 0.0 
1.00679 0.256032 0.0 
1.00862 0 0.0 
1.01305 -0.00284177 0.0 
0.197306 0.181524 0.0 
0.106848 0.0188799 0.0 
0.0610476 -0.00156103 0.0 
0.00135286 0.000316727 0.0 
1.04926 -0.129997 0.0 
1.00081 -0.00148739 0.0 
0 0 0.0 
0.0226252 -0.0044478 0.0 
0.0739523 0.0157862 0.0 
0.0130551 -0.000246361 0.0 
0 0 0.0 
0.160508 -0.140208 0.0 
0 0 0.0 
0.282764 0.0469628 0.0 
0.618522 0.369299 0.0 
1.00777 0 0.0 
0 0 0.0 
0.0524016 -0.0138521 0.0 
0 0 0.0 
0.887508 -0.026078 0.0 
0.00565665 0.000524932 0.0 
0.913621 -0.130386 0.0 
0.000197489 -1.7352e-05 0.0 
0.981327 0.00748005 0.0 
0.062869 -0.0176171 0.0 
1.0087 -0.000678097 0.0 
0.0046212 -0.000473329 0.0 
0.639259 0.0917602 0.0 
0.00422637 0.000521489 0.0 
0.0793626 -0.0101542 0.0 
0.646594 0.182402 0.0 
0.723894 0.121543 0.0 
0.00393262 -0.000537996 0.0 
0.721444 0.156278 0.0 
1.0095 -0.000317109 0.0 
0.99947 -0.000561977 0.0 
0.76203 0.327765 0.0 
0.0123217 -0.000339029 0.0 
0.00464996 -9.69575e-05 0.0 
1.01191 0.0347528 0.0 
-6.87192e-121 -1.2784e-121 0.0 
1.00011 -0.00153785 0.0 
0.323214 0.107998 0.0 
0.814558 0.351861 0.0 
1.0858 -0.17952 0.0 
0 0 0.0 
1.00634 -0.000855924 0.0 
1.00896 0.000142994 0.0 
0.473698 0.328208 0.0 
0.118356 0.0281814 0.0 
0.946036 -0.0511966 0.0 
1.07347 -0.0949147 0.0 
0.568475 0.00553457 0.0 
0 0 0.0 
0.0473195 -0.013989 0.0 
0.124158 0.00194569 0.0 
0 0 0.0 
1.00854 0.00129343 0.0 
0.812446 -0.223439 0.0 
0 0 0.0 
1.98401e-05 -1.67616e-06 0.0 
0.0873459 -0.00930126 0.0 
1.00202 0.00172792 0.0 
1.00823 0.00202208 0.0 
0.584275 0.114554 0.0 
0.48109 -0.0357308 0.0 
1.00971 -0.00101259 0.0 
1.0005 -0.000465432 0.0 
1.00779 -0.000309102 0.0 
1.00202 -0.000373441 0.0 
0.600231 0.338254 0.0 
0.0493898 -0.116833 0.0 
0.101622 -0.00791456 0.0 
0.478758 -0.445336 0.0 
0.0238715 0.00478518 0.0 
1.00908 -0.000324404 0.0 
0.0260116 0.00670919 0.0 
0 0 0.0 
0.461039 -0.0131064 0.0 
1.0068 -0.00371797 0.0 
0.0441164 -0.0069312 0.0 
0.898708 0.00683282 0.0 
0.0363019 -0.0103015 0.0 
1.12809 0.0488025 0.0 
0.00863072 0.00065523 0.0 
1.01278 0.000227953 0.0 
0.255962 -0.0227563 0.0 
0.322513 -0.0277975 0.0 
0.00317853 -0.000470915 0.0 
0.477943 -0.0518645 0.0 
-3.99271e-23 2.007e-24 0.0 
0.594562 -0.346572 0.0 
0.302624 0.018354 0.0 
0 0 0.0 
0.00466795 0.000415015 0.0 
0.595592 -0.0254065 0.0 
2.42696e-09 -1.06883e-09 0.0 
0.0443868 -0.00154144 0.0 
0.105574 0.00410856 0.0 
0 0 0.0 
0.314371 0.267372 0.0 
0.507704 0.278488 0.0 
0.676064 0.000533448 0.0 
1.00764 0 0.0 
1.0088 -0.000951251 0.0 
7.23282e-197 1.23939e-197 0.0 
0.222074 -0.0431506 0.0 
0.2609 -0.029031 0.0 
0.0534938 -0.00202586 0.0 
0 0 0.0 
0.136968 0.00913657 0.0 
-2.43654e-15 5.51051e-17 0.0 
0 0 0.0 
0.160709 0.0926043 0.0 
1.97776e-63 8.60233e-65 0.0 
1.8865e-05 -2.49102e-06 0.0 
0.759883 0.198952 0.0 
0.307782 0.272758 0.0 
0 0 0.0 
0.433327 0.111446 0.0 
0.156655 0.00570776 0.0 
1.00016 -0.000660982 0.0 
0 0 0.0 
0.606728 0.314607 0.0 
0 0 0.0 
0.769165 -0.338319 0.0 
0.46039 -0.19194 0.0 
0.0836806 0.0144997 0.0 
0.388 0.0152551 0.0 
0 0 0.0 
0.0259166 -0.000493793 0.0 
0.0069956 0.000401639 0.0 
-5.67101e-16 -3.03213e-17 0.0 
1.00871 -0.000955078 0.0 
0.04876 -0.00339549 0.0 
0.00518535 0.000408805 0.0 
1.05006 0.0738433 0.0 
0.0164102 0.000900256 0.0 
0.849773 -0.119492 0.0 
0.22787 0.0097237 0.0 
0.225952 -0.0911892 0.0 
0.157371 -0.0164717 0.0 
0.486773 0.13478 0.0 
0.00428402 -0.000622452 0.0 
0.000156709 9.79637e-06 0.0 
2.05518e-10 1.87767e-11 0.0 
2.5759e-211 2.08717e-212 0.0 
0.388579 0.0510706 0.0 
0.0284572 -0.00865763 0.0 
-1.04684e-26 6.29409e-28 0.0 
0.116984 -0.0724929 0.0 
0.58561 -0.0377154 0.0 
1.00998 0.00194353 0.0 
0.715674 -0.00058912 0.0 
0.541605 0.299577 0.0 
0.0415464 -0.015193 0.0 
0.859115 -0.00461524 0.0 
0.343901 -0.0254122 0.0 
0.503518 0.00993765 0.0 
0.954376 -0.00399082 0.0 
0.708602 -0.378178 0.0 
1.00002 0.00108011 0.0 
-1.12282e-113 2.55594e-116 0.0 
0.82835 -0.364368 0.0 
0.415987 -0.0387902 0.0 
1.00857 0.000164225 0.0 
0.772086 -0.286792 0.0 
1.00818 -0.000568168 0.0 
0.832377 0.000715403 0.0 
0.00795418 -0.000217595 0.0 
2.00223e-224 9.93113e-225 0.0 
0.0328436 -0.0116857 0.0 
0.818464 0.366016 0.0 
0.00118227 -0.000116043 0.0 
1.01909e-06 1.47557e-07 0.0 
0.96977 0.303384 0.0 
0.0661842 -0.00165291 0.0 
0.711083 0.270971 0.0 
1.009 -0.000734125 0.0 
1.00932 0.00156267 0.0 
0.276322 -0.346877 0.0 
0.377909 -0.00115039 0.0 
1.01755 -0.0287709 0.0 
0.676113 0.241427 0.0 
1.00894 -0.000246165 0.0 
0.706548 0.375345 0.0 
1.00001 -0.000170103 0.0 
0 0 0.0 
0.0367101 0.00718216 0.0 
0.727038 0.308406 0.0 
1.73473e-182 -2.57637e-183 0.0 
0.0800766 0.00706495 0.0 
0.344656 -0.0239903 0.0 
1.00005 0.00266488 0.0 
0.607996 -0.292093 0.0 
0.757804 0.212603 0.0 
0.761797 0.305319 0.0 
0 0 0.0 
6.13522e-200 4.97119e-201 0.0 
0.630342 -0.261868 0.0 
8.36447e-69 -5.32125e-71 0.0 
0.423947 -0.123498 0.0 
0.378542 0.0103926 0.0 
0.613579 -0.0316816 0.0 
0.578841 -0.433411 0.0 
0.00866146 2.93739e-05 0.0 
0.00209457 -0.000401265 0.0 
0.448228 -0.100165 0.0 
0.540711 -0.0338829 0.0 
1.009 -0.00122562 0.0 
0.000180192 -2.15636e-05 0.0 
0.496798 0.107055 0.0 
0.4391 0.0253762 0.0 
1.00882 -0.0955109 0.0 
0.00807365 0.000858329 0.0 
0.102013 -0.0209457 0.0 
1.17097e-06 1.2779e-07 0.0 
0.00436968 0.000397517 0.0 
-3.37754e-16 3.52771e-18 0.0 
1.00889 -0.00114887 0.0 
0.00016194 1.56996e-05 0.0 
0.750105 0.279223 0.0 
0.148661 0.0171747 0.0 
0.00178757 -0.000117616 0.0 
0.0727549 -0.0310043 0.0 
1.04253 0.0991779 0.0 
0.0634383 0.0320376 0.0 
0.231428 0.140819 0.0 
1.02307e-97 6.09172e-98 0.0 
0.768472 0.367059 0.0 
0.746818 0.0635044 0.0 
0.864561 0.354705 0.0 
0 0 0.0 
0.814417 0.356882 0.0 
0.102916 -0.0234113 0.0 
0.282018 -0.0315624 0.0 
0.942912 -0.334657 0.0 
0.21266 0.00496154 0.0 
0.743442 -0.0898021 0.0 
1.01053 -4.06798e-05 0.0 
0.165064 0.0101842 0.0 
0.868843 -0.0281586 0.0 
0 0 0.0 
0.915022 -0.0399096 0.0 
-1.3323e-95 1.17083e-96 0.0 
0.408668 -0.00304925 0.0 
0.0457661 -0.00985167 0.0 
0.810089 0.127409 0.0 
0.187145 0.0393674 0.0 
0.632749 0.28548 0.0 
0.972224 0.0387107 0.0 
0.00713005 0.000715379 0.0 
1.00056 -0.000238375 0.0 
0.496455 -0.354242 0.0 
0.0190341 0.000467234 0.0 
1.00919 0.000318681 0.0 
0.887465 -0.200918 0.0 
0.696527 -0.448652 0.0 
0.767513 0.0875799 0.0 
1.00876 -0.000417765 0.0 
0.107819 0.015957 0.0 
0.565097 0.0526465 0.0 
0.883147 -0.0332111 0.0 
1.00791 0 0.0 
3.25884e-220 2.64054e-221 0.0 
1.00783 -0.000179406 0.0 
1.00043 0.00524452 0.0 
0.155397 0.0451823 0.0 
1.01181 0.000153637 0.0 
0.0219807 0.000560255 0.0 
0.0632215 -0.0131402 0.0 
1.01101 -0.00102511 0.0 
0.0437102 -0.016796 0.0 
0.590496 0.080841 0.0 
0.0553947 -0.0169642 0.0 
0.985486 -0.0294667 0.0 
0.0191236 -0.0105368 0.0 
0.943107 -0.000548228 0.0 
1.01084 0.00216066 0.0 
0 0 0.0 
0.854387 0.254736 0.0 
0.840701 0.00148867 0.0 
1.36836e-222 4.03907e-223 0.0 
1.00873 -0.00105365 0.0 
1.00864 5.62197e-277 0.0 
0.0630625 0.0030623 0.0 
0.0162142 0.000526878 0.0 
0.142743 -0.120943 0.0 
0.0132819 -0.00453333 0.0 
0.0147743 0.000884996 0.0 
-5.26951e-56 -2.02426e-56 0.0 
0.175532 0.161112 0.0 
4.20203e-33 1.42872e-34 0.0 
0.00868333 -0.000473648 0.0 
1.00656 0 0.0 
0.624425 0.00259739 0.0 
1.00957 -0.295318 0.0 
4.71948e-05 -9.7446e-07 0.0 
0.98251 0.0798149 0.0 
1.0088 0.000838036 0.0 
0.00614651 0.00538521 0.0 
0.323867 0.168846 0.0 
0.00481918 0.000441941 0.0 
1.00124 -0.000403683 0.0 
0.00449571 0.000111828 0.0 
0.435881 -0.0983859 0.0 
0.334782 -0.348747 0.0 
3.32459e-66 -1.6265e-67 0.0 
0.24551 0.0375583 0.0 
0.288858 0.0632056 0.0 
1.01673 -0.0440652 0.0 
0.127795 -0.00579182 0.0 
0.730709 -0.335533 0.0 
0.727098 0.191338 0.0 
1.00761 0 0.0 
0.677832 0.199272 0.0 
0.665211 -0.215976 0.0 
0.500657 0.152503 0.0 
0.226763 0.0234479 0.0 
1.01051 0.00756372 0.0 
4.99212e-05 1.32166e-06 0.0 
1.03601 -0.27353 0.0 
0.592813 -0.0734399 0.0 
3.71587e-05 6.3448e-06 0.0 
0.536663 -0.0621515 0.0 
-2.03636e-47 2.33657e-48 0.0 
1.09264 -0.0935239 0.0 
0.851442 0.00214279 0.0 
1.04659 -0.0413548 0.0 
0.0043069 0.000496407 0.0 
0.00998547 -0.00119516 0.0 
0.998804 0.00118341 0.0 
1.0082 -0.000689685 0.0 
0 0 0.0 
0.323943 0.0138849 0.0 
0.899428 0.00131221 0.0 
1.0084 -0.00281367 0.0 
0.0255153 -0.00747223 0.0 
0.925296 0.00140623 0.0 
1.00903 -0.00168343 0.0 
1.00658 -5.98984e-05 0.0 
0 0 0.0 
0 0 0.0 
0.0282039 0.00171793 0.0 
0.0908285 0.00444625 0.0 
-2.94049e-102 -1.30184e-103 0.0 
0.117481 -0.021532 0.0 
1.00003 0.000516294 0.0 
0.744165 -0.428757 0.0 
0.00181305 -0.000203334 0.0 
0.282118 0.0771747 0.0 
1.01716 0.22923 0.0 
0.050364 0.00747068 0.0 
1.00777 -0.00052043 0.0 
-4.7443e-224 -1.1046e-224 0.0 
0 0 0.0 
0.949937 -0.0715231 0.0 
0.0973108 -0.0103781 0.0 
0.00573523 0.000574281 0.0 
0.0330959 -0.0150551 0.0 
1.00386 0.232247 0.0 
0.801887 -0.352337 0.0 
0.39236 0.244348 0.0 
1.06534 -0.0303397 0.0 
0.83721 0.236938 0.0 
-3.74864e-47 2.84138e-48 0.0 
1.00792 4.4746e-05 0.0 
0.00787605 5.69102e-05 0.0 
0.645044 -0.0089578 0.0 
0 0 0.0 
0.998049 0.0112723 0.0 
0.956866 -0.0386346 0.0 
1.00946 0.000219312 0.0 
0.144083 0.00809337 0.0 
0.999249 0.00133663 0.0 
1.08963 -0.0454152 0.0 
1.00051 0.000591346 0.0 
0.00375055 -2.65209e-05 0.0 
1.01022 0.00134114 0.0 
0.0830612 0.00670212 0.0 
0 0 0.0 
0.323745 0.0189986 0.0 
0.4884 -0.0014726 0.0 
1.00005 0.0016284 0.0 
0 0 0.0 
0.96849 -0.34228 0.0 
0.0220021 0.000260105 0.0 
0.0208708 -0.0121551 0.0 
0.923267 -0.28066 0.0 
0.850368 0.330846 0.0 
0.0149065 0.000233247 0.0 
0.0127319 0.000934424 0.0 
1.0093 0.000188375 0.0 
0.97482 0.175039 0.0 
0 0 0.0 
0.56138 -0.207643 0.0 
0.8064 0.165724 0.0 
0.00298917 -0.000616139 0.0 
0.246889 0.237919 0.0 
0.77663 0.0642559 0.0 
1.01103 -0.00135781 0.0 
0.742639 -0.129421 0.0 
1.00001 -0.000531436 0.0 
0.0293544 -0.00273875 0.0 
0.0326191 0.00124892 0.0 
0.616294 -0.116529 0.0 
0.988352 -0.0057989 0.0 
0.371652 -0.328082 0.0 
0.998904 0.0188285 0.0 
0.837917 0.0259916 0.0 
5.38522e-227 9.22789e-228 0.0 
0.158555 -0.252047 0.0 
0.0294388 0.00917587 0.0 
-5.43022e-111 5.06309e-112 0.0 
0.444458 -0.0394915 0.0 
0 0 0.0 
1.00872 -0.000738939 0.0 
0 0 0.0 
0.655838 0.00910386 0.0 
0.872603 0.00423415 0.0 
0.843932 0.34245 0.0 
0.0326941 0.000752781 0.0 
0.969407 -0.00423939 0.0 
0.0475042 -0.00044993 0.0 
0.743157 0.302529 0.0 
0.619306 0.0111751 0.0 
0.555683 -0.0393202 0.0 
0.0301969 -0.0130257 0.0 
1.01571 -0.00642668 0.0 
0.0763441 0.0156145 0.0 
0.858649 -0.403035 0.0 
0.00432522 -0.000146283 0.0 
1.00805 6.6777e-05 0.0 
5.14206e-208 2.03187e-208 0.0 
0.718744 0.0181535 0.0 
1.01004 0.0011714 0.0 
0.967976 -0.0246505 0.0 
0.676114 -0.367292 0.0 
1.00493 0.00113499 0.0 
0.59371 -0.143034 0.0 
0.00722186 0.000420774 0.0 
0.991601 -0.000921549 0.0 
0.0151545 0.000805878 0.0 
8.4055e-14 8.66918e-15 0.0 
1.00924 0.000224356 0.0 
1.00055 0.00430039 0.0 
0.0715777 0.0063393 0.0 
1.00796 7.28975e-05 0.0 
0.99995 -0.000486968 0.0 
0.00302017 -0.000112973 0.0 
0.0333769 -9.39514e-05 0.0 
2.24337e-88 -9.8537e-91 0.0 
1.00794 -0.015745 0.0 
0.311639 -0.261636 0.0 
1.00498 -0.00288564 0.0 
0.964993 0.285131 0.0 
0.470219 -0.0250716 0.0 
0.0370418 -0.00835255 0.0 
0.210044 0.0964734 0.0 
1.00787 0 0.0 
1.00938 0.000269165 0.0 
0.350773 -0.0170406 0.0 
0.0793423 -0.0182836 0.0 
0.154931 -0.0554626 0.0 
1.00037 0.00141892 0.0 
0.693981 -0.159634 0.0 
0 0 0.0 
2.25245e-175 3.85971e-176 0.0 
0.804107 -0.373069 0.0 
0.402727 -0.242592 0.0 
0.495507 0.236503 0.0 
0.629071 0.154883 0.0 
0.477752 0.173166 0.0 
0.876939 0.0786952 0.0 
0.883869 -0.0145132 0.0 
0.0627997 0.00596329 0.0 
0.999821 0.00251265 0.0 
0.0484261 -0.00151265 0.0 
0.998873 -0.000144278 0.0 
0 0 0.0 
0 0 0.0 
-2.90402e-106 -3.48084e-109 0.0 
0.052787 0.00495904 0.0 
0.114766 0.14062 0.0 
0.0235288 -0.00443565 0.0 
0.000265696 1.79794e-05 0.0 
0.633379 -0.0259047 0.0 
1.00016 0.000634897 0.0 
0.000115652 1.74232e-05 0.0 
0.681602 0.366565 0.0 
1.01041 -0.000314444 0.0 
1.00979 0.000784279 0.0 
1.00388 0.00268486 0.0 
0.0409685 -0.000161501 0.0 
0.963581 -0.00613124 0.0 
0.714614 -0.0370342 0.0 
0.905979 -0.392244 0.0 
1.0078 0.000102625 0.0 
0.838716 -0.33311 0.0 
0.121514 0.0110202 0.0 
0 0 0.0 
0.140488 0.00412204 0.0 
1.0151 0.00245788 0.0 
0.00341468 -0.000598287 0.0 
0.783982 -0.276684 0.0 
-8.99016e-15 -6.07676e-16 0.0 
0.984927 0.0347479 0.0 
0.873039 0.139401 0.0 
9.59479e-13 7.70052e-14 0.0 
0.155933 0.0223642 0.0 
0.0520139 0.0139018 0.0 
0.227076 0.203582 0.0 
1.0084 0.000172325 0.0 
1.23969e-07 5.34933e-09 0.0 
0.911983 -0.00660431 0.0 
0.750682 -0.00227679 0.0 
1.08824 0.110377 0.0 
0.836302 -0.420042 0.0 
7.43456e-07 1.10478e-07 0.0 
0.875049 -0.287111 0.0 
0.835047 -0.419178 0.0 
0 0 0.0 
0.0480898 -0.0167199 0.0 
0.372958 -0.0366561 0.0 
0.547012 -0.397561 0.0 
0.999953 0.00143009 0.0 
1.07873 -0.0231041 0.0 
0.165127 0.0130456 0.0 
0.214023 0.00557636 0.0 
1.00674 -0.000191093 0.0 
0.00624902 -0.00188673 0.0 
0.999985 -0.000596417 0.0 
0.171821 0.0509269 0.0 
0.571709 0.0115229 0.0 
0.653026 -0.353095 0.0 
0.13031 -0.0199376 0.0 
0.124284 0.0200555 0.0 
0.30699 -0.0255782 0.0 
0.00439353 -0.000142994 0.0 
0.999908 -0.000716967 0.0 
0.122676 -0.100699 0.0 
0.910143 -0.0270953 0.0 
0.00367647 0.00021938 0.0 
0 0 0.0 
0.516472 -0.0774616 0.0 
0.843189 0.149748 0.0 
1.11821 0.139736 0.0 
1.00425 -0.00413755 0.0 
4.80724e-62 -1.20351e-62 0.0 
7.18063e-192 3.40785e-192 0.0 
0.593946 0.0792004 0.0 
0.203742 0.0247558 0.0 
0.157303 0.00701088 0.0 
0 0 0.0 
0.738512 -0.409137 0.0 
0.0015842 -0.000234916 0.0 
0.568215 -0.063942 0.0 
0.320205 0.196848 0.0 
0.0904336 0.0179304 0.0 
0.493854 -0.320783 0.0 
1.01241 0.00331373 0.0 
0.957735 -0.0362825 0.0 
0.779666 -0.00977806 0.0 
0.30559 0.0848145 0.0 
0.284296 -0.321305 0.0 
1.00157 0.00851092 0.0 
0.019 -0.00106088 0.0 
0.0784677 -0.00496106 0.0 
1.00856 0.000238112 0.0 
1.11691 0.0980124 0.0 
0.142037 0.0638542 0.0 
4.94327e-06 4.09366e-07 0.0 
0.251889 0.138888 0.0 
1.00809 0.000125394 0.0 
0.999204 -0.0015622 0.0 
4.99489e-196 1.84084e-196 0.0 
0.00208702 -0.000268248 0.0 
0.0897948 0.00426959 0.0 
0 0 0.0 
0.0967648 0.0158831 0.0 
0 0 0.0 
1.00516 -0.000431708 0.0 
0.34516 0.132487 0.0 
0.436728 0.0071568 0.0 
0.0801516 -0.0121477 0.0 
0 0 0.0 
1.00907 -0.0012722 0.0 
1.00904 -0.0021927 0.0 
1.0082 0.000120961 0.0 
0.700887 -0.0384704 0.0 
-1.36477e-111 3.10549e-112 0.0 
-1.09469e-80 6.00303e-82 0.0 
1.00709 -0.000274597 0.0 
0 0 0.0 
0.0122379 -0.000991437 0.0 
-3.57604e-47 -6.90298e-47 0.0 
0.0574805 0.00973564 0.0 
1.00902 -0.00691788 0.0 
0 0 0.0 
0.00381023 5.97366e-05 0.0 
0.755519 0.349379 0.0 
0.0639665 0.0663984 0.0 
0 0 0.0 
1.05164 -0.0487449 0.0 
0.0448976 -0.00360615 0.0 
0.69604 0.0669842 0.0 
0.999687 -0.00197747 0.0 
0.87581 0.328168 0.0 
5.97029e-235 1.02304e-235 0.0 
1.00231 0.00490366 0.0 
0.695711 -0.338739 0.0 
0.69108 0.137173 0.0 
0.149211 0.142467 0.0 
1.00673 0.00326525 0.0 
1.00924 -0.000964457 0.0 
1.00838 0.00040885 0.0 
0 0 0.0 
1.00246 -0.000526113 0.0 
0.00455107 -8.47049e-05 0.0 
2.74631e-06 9.11305e-08 0.0 
1.00847 0.000212088 0.0 
0.138457 -0.206627 0.0 
0.00694757 0.000579968 0.0 
0.780002 -0.323391 0.0 
0.0131484 0.0002039 0.0 
0.00435244 -0.00070602 0.0 
0.0111026 -0.0029636 0.0 
0.0881084 -0.0178577 0.0 
0.286728 -0.0283168 0.0 
0.107882 0.00760821 0.0 
0.592918 0.139369 0.0 
0.0105647 -0.00115317 0.0 
0.127366 0.000834718 0.0 
0.766165 -0.417561 0.0 
0.998792 -0.00405047 0.0 
0.0217845 0.00712537 0.0 
1.01032 -0.00268426 0.0 
0.977555 -0.0405059 0.0 
0.65768 -0.463815 0.0 
0.237364 0.00248946 0.0 
2.60659e-279 -2.31685e-281 0.0 
0.112473 0.0353191 0.0 
-8.0446e-293 -1.27847e-293 0.0 
-1.26377e-16 -4.26018e-18 0.0 
0.152132 0.138029 0.0 
0.270749 0.105672 0.0 
1.02795 -0.166989 0.0 
0.0103813 0.00082088 0.0 
0.745239 -0.0450205 0.0 
0.512478 -0.000445263 0.0 
0.152308 -0.0316913 0.0 
0.999997 -0.00017168 0.0 
-7.31875e-17 -4.0184e-18 0.0 
0.335697 0.0396641 0.0 
0.965212 -0.00280691 0.0 
1.0078 8.71316e-05 0.0 
1.02268 -0.00385359 0.0 
0.169806 0.0298836 0.0 
1 0 0.0 
1.06495 -0.0380217 0.0 
0.108159 -0.0199381 0.0 
1.0124 -0.00167895 0.0 
0.287578 0.0102956 0.0 
0.802708 -0.440252 0.0 
1.0117 -0.000953759 0.0 
1.00719 -0.000140796 0.0 
0.127827 -0.0515763 0.0 
1.00777 -0.0316339 0.0 
0.0629157 0.000989401 0.0 
1.00547 0.00434775 0.0 
1.00848 8.63429e-05 0.0 
0.966621 0.00827572 0.0 
0.583449 -0.450817 0.0 
1.00827 0.000155669 0.0 
1.00395 -0.00059351 0.0 
0 0 0.0 
0.612883 0.128923 0.0 
1.0096 -0.00111521 0.0 
5.36757e-240 1.79223e-240 0.0 
0.000119773 -3.68474e-06 0.0 
1.12794 0.0692331 0.0 
1.01085 0.0015446 0.0 
1.01065 0.000982748 0.0 
0.545134 0.304794 0.0 
0.0320445 -0.000266591 0.0 
0.121314 0.0127163 0.0 
0.625173 -0.447238 0.0 
0.00410702 -0.00048701 0.0 
0.84559 0.0364102 0.0 
0.713672 -0.438149 0.0 
0.456194 0.289042 0.0 
0 0 0.0 
0.0118158 -0.000227705 0.0 
1.0175 -0.0035589 0.0 
0.130182 -0.0234888 0.0 
1.00846 -0.000660393 0.0 
0.869879 -0.0482406 0.0 
2.63262e-115 1.56756e-115 0.0 
0.00536699 0.000272381 0.0 
1.00569 0 0.0 
1.00985 0.00546348 0.0 
0.00018558 -5.12572e-07 0.0 
0.0579583 0.000631984 0.0 
0.894779 -0.120435 0.0 
0.749771 -0.0137803 0.0 
0.373576 0.0256098 0.0 
0.00510172 -0.000762758 0.0 
0.144901 -0.0232007 0.0 
1.00084 0.00173631 0.0 
1.11492 0.0497799 0.0 
0.023289 -0.0078778 0.0 
0.0880122 -0.00535164 0.0 
0.741402 -0.0189427 0.0 
0.104523 -0.0206498 0.0 
0.718824 -0.401744 0.0 
0.670233 -0.00535175 0.0 
0.648669 -0.105209 0.0 
1.0006 0.00175865 0.0 
1.00868 0.000246631 0.0 
1.0001 0.00104807 0.0 
0.354799 0.184152 0.0 
-3.21124e-48 3.13079e-50 0.0 
1.01047 -0.000769787 0.0 
0.0034573 -0.00039123 0.0 