<VTKFile type="UnstructuredGrid" version="0.1" byte_order="LittleEndian">
  <UnstructuredGrid>
    <Piece NumberOfPoints="12520" NumberOfCells="24886">
      <Points>
        <DataArray type = "Float64" NumberOfComponents="3" format="ascii">
0 0 0.0 
14 0 0.0 
14 8 0.0 
0 8 0.0 
4.11562 3.96117 0.0 
12.8057 1.94595 0.0 
0.483697 5.24337 0.0 
4.40328 3.95604 0.0 
4.98587 4.00487 0.0 
4.02495 4.02882 0.0 
4.32286 4.06084 0.0 
4.08596 3.93674 0.0 
4.13274 4.05843 0.0 
4.06122 4.00173 0.0 
4.31481 2.21348 0.0 
4.05477 4.02613 0.0 
3.97707 4.01347 0.0 
8.29677 5.77683 0.0 
6.90309 4.14178 0.0 
4.00922 3.99881 0.0 
4.02803 4.04844 0.0 
4.96699 4.00808 0.0 
4.01927 3.99345 0.0 
4.38869 4.06925 0.0 
5.00748 4.02107 0.0 
8.66724 7.12549 0.0 
3.98196 3.98783 0.0 
4.04664 4.03127 0.0 
3.91647 4.75071 0.0 
11.9368 8 0.0 
4.03416 4.05264 0.0 
4.12387 3.9193 0.0 
5.00166 3.98677 0.0 
3.99686 4.00472 0.0 
4.50536 3.97607 0.0 
4.6973 4.17366 0.0 
3.97913 3.92947 0.0 
5.00397 3.99911 0.0 
4.38241 3.95815 0.0 
3.99967 4.0114 0.0 
5.01231 3.99799 0.0 
4.62278 3.95949 0.0 
4.99901 3.9997 0.0 
5.1398 3.99462 0.0 
14 6.11123 0.0 
3.99502 4.01186 0.0 
3.96293 3.99513 0.0 
4.82279 3.99076 0.0 
4.12785 4.05608 0.0 
5.03707 4.00709 0.0 
3.99922 3.99464 0.0 
4.85538 4.02559 0.0 
5.27786 4.09853 0.0 
4.00632 4.07473 0.0 
14 5.21618 0.0 
8.55881 8 0.0 
4.82996 3.99108 0.0 
2.84867 5.48986 0.0 
3.70076 4.32416 0.0 
4.01308 4.00992 0.0 
4.99318 3.98687 0.0 
3.93389 4.14324 0.0 
4.27441 4.05318 0.0 
4.23725 3.95116 0.0 
3.92191 4.08593 0.0 
5.00128 3.99352 0.0 
4.0516 4.01972 0.0 
5.04579 4.04273 0.0 
4.01332 4.02389 0.0 
4.39931 4.17113 0.0 
3.86281 5.54786 0.0 
7.47511 4.12067 0.0 
4.17452 4.07539 0.0 
3.97185 4.00557 0.0 
4.44364 3.94364 0.0 
4.18447 4.07105 0.0 
10.1833 0.248119 0.0 
4.02875 4.04115 0.0 
3.73593 1.32342 0.0 
4.44564 4.06694 0.0 
4.05119 3.97362 0.0 
1.26284 5.53443 0.0 
4.61938 3.97963 0.0 
4.51797 4.063 0.0 
4.12048 3.96949 0.0 
5.1819 4.12653 0.0 
4.42862 4.0678 0.0 
4.19736 4.07182 0.0 
1.32075 0.258254 0.0 
4.99469 4.00664 0.0 
5.02611 4.00685 0.0 
4.28201 4.0796 0.0 
5.00301 4.00689 0.0 
4.02244 4.02798 0.0 
4.56618 4.08519 0.0 
4.96253 3.99688 0.0 
5.0905 2.15481 0.0 
3.99804 4.00956 0.0 
5.01331 3.98969 0.0 
4.13054 3.92699 0.0 
4.55115 4.05977 0.0 
5.00674 4.00102 0.0 
4.79296 3.98918 0.0 
4.9822 4.01335 0.0 
3.94998 4.00759 0.0 
5.01715 4.01877 0.0 
4.00827 4.01937 0.0 
4.24374 3.962 0.0 
4.24611 4.04104 0.0 
3.99252 4.00665 0.0 
4.00947 4.02943 0.0 
9.40305 2.78122 0.0 
4.01509 3.97316 0.0 
4.05784 3.98854 0.0 
3.84288 3.97339 0.0 
4.00605 4.04519 0.0 
4.10081 3.94382 0.0 
4.0728 4.04312 0.0 
4.07915 4.04655 0.0 
5.00368 4.02219 0.0 
10.7396 5.64099 0.0 
4.17928 4.07873 0.0 
3.14696 3.2684 0.0 
4.3199 3.99807 0.0 
5.03099 4.00231 0.0 
3.9818 4.03131 0.0 
3.96476 4.03852 0.0 
4.81433 4.03167 0.0 
3.97233 4.04194 0.0 
4.10947 4.02973 0.0 
1.06014 3.31576 0.0 
4.36081 4.06997 0.0 
7.41888 4.17352 0.0 
4.17094 3.97404 0.0 
4.0743 3.95618 0.0 
8.41171 0.329633 0.0 
4.07215 4.00541 0.0 
3.97951 4.02749 0.0 
5.26578 4.14992 0.0 
4.00753 4.02292 0.0 
5.04696 4.06971 0.0 
13.2653 2.91651 0.0 
4.00862 3.99137 0.0 
4.96142 4.0075 0.0 
4.23103 3.92099 0.0 
3.99463 4.03164 0.0 
4.00248 4.00668 0.0 
4.23556 3.96693 0.0 
4.96609 3.96653 0.0 
4.4342 3.97302 0.0 
4.50985 7.40044 0.0 
4.5403 3.97686 0.0 
4.63036 3.98044 0.0 
4.51962 4.07688 0.0 
5.05919 4.01855 0.0 
2.15923 7.15628 0.0 
4.90959 4.01682 0.0 
4.91773 3.99503 0.0 
4.23015 4.06912 0.0 
7.18887 6.80823 0.0 
1.24078 0.550265 0.0 
9.10545 7.45594 0.0 
2.38032 0.204862 0.0 
4.01517 4.03055 0.0 
3.99882 3.99972 0.0 
4.25293 3.96763 0.0 
3.99908 3.98836 0.0 
3.98897 4.0168 0.0 
4.03518 4.00681 0.0 
11.2831 2.28617 0.0 
4.1938 4.04426 0.0 
4.21507 3.9482 0.0 
4.23264 4.06095 0.0 
4.97222 4.02124 0.0 
8.43382 2.32988 0.0 
4.13473 3.95665 0.0 
9.49647 4.49638 0.0 
4.47246 4.11771 0.0 
11.9473 3.59927 0.0 
5.1327 4.04445 0.0 
4.10958 4.04953 0.0 
4.10016 3.95849 0.0 
4.153 3.95486 0.0 
3.9901 3.98452 0.0 
5.05584 3.99665 0.0 
5.74714 0.501515 0.0 
0.675906 6.82819 0.0 
11.8818 1.43246 0.0 
3.9991 4.01401 0.0 
4.58201 3.97876 0.0 
4.49801 3.96723 0.0 
4.67895 4.01774 0.0 
3.35348 3.43138 0.0 
4.57509 4.07091 0.0 
6.49588 0.311882 0.0 
13.2253 0 0.0 
4.04484 4.01598 0.0 
4.96457 3.97813 0.0 
4.04578 3.97362 0.0 
5.08198 4.04957 0.0 
5.02947 4.00625 0.0 
4.07912 4.02843 0.0 
6.15465 3.84863 0.0 
4.47135 4.08424 0.0 
13.7427 0 0.0 
4.18907 4.07869 0.0 
8.6355 3.82671 0.0 
1.5342 5.64886 0.0 
3.98048 4.05294 0.0 
4.5151 4.06305 0.0 
4.13386 4.04638 0.0 
3.98816 4.01224 0.0 
4.50982 3.96368 0.0 
0.848755 1.28674 0.0 
4.0117 3.99263 0.0 
3.99752 4.02893 0.0 
4.01884 3.99521 0.0 
4.01748 3.97335 0.0 
3.98628 3.99582 0.0 
4.91717 4.01621 0.0 
4.00319 3.98866 0.0 
4.80036 3.98921 0.0 
4.72311 4.08863 0.0 
4.99413 3.99304 0.0 
4.57547 3.97822 0.0 
9.55669 5.91713 0.0 
10.3304 4.84659 0.0 
5.03164 4.01789 0.0 
4.3171 4.12404 0.0 
4.52458 3.97502 0.0 
3.93549 3.94275 0.0 
4.77225 3.96575 0.0 
4.01932 3.98151 0.0 
5.10311 4.0306 0.0 
4.94559 3.97095 0.0 
4.00419 3.99108 0.0 
4.46273 4.06647 0.0 
4.14 4.05653 0.0 
4.63695 3.98203 0.0 
4.10893 3.96977 0.0 
5.01057 4.00638 0.0 
2.79081 7.59228 0.0 
4.0096 4.0154 0.0 
4.37698 3.97077 0.0 
7.26053 3.88527 0.0 
3.9961 4.02386 0.0 
5.19186 4.05323 0.0 
4.73394 3.98631 0.0 
4.19558 4.06715 0.0 
3.98111 4.00805 0.0 
4.15506 3.98488 0.0 
3.99352 3.97666 0.0 
0.747562 5.69493 0.0 
4.6997 4.04597 0.0 
4.01707 3.9715 0.0 
8.28094 0.596167 0.0 
3.98586 3.96653 0.0 
4.33876 4.07612 0.0 
11.3109 3.9311 0.0 
11.5993 8 0.0 
6.02682 0.596078 0.0 
4.99696 4.01379 0.0 
4.02402 4.04636 0.0 
4.02411 3.9727 0.0 
3.98948 4.03722 0.0 
4.06133 4.06985 0.0 
5.04267 4.00787 0.0 
3.99417 4.04189 0.0 
7.6181 7.09785 0.0 
4.71441 7.15979 0.0 
3.99997 3.99241 0.0 
4.41092 4.08744 0.0 
4.01049 4.03559 0.0 
4.73465 3.9846 0.0 
4.01987 4.02261 0.0 
4.04457 4.10799 0.0 
0.206973 1.52205 0.0 
4.27012 4.05517 0.0 
4.0005 4.04249 0.0 
4.75393 3.97178 0.0 
4.0028 4.00988 0.0 
4.10669 4.05495 0.0 
3.9896 4.00463 0.0 
4.16613 3.98038 0.0 
3.98613 3.98439 0.0 
4.92887 3.98644 0.0 
4.00273 4.04763 0.0 
4.02428 4.00868 0.0 
4.11039 4.06075 0.0 
5.00237 3.99508 0.0 
3.31732 6.6484 0.0 
3.98643 3.99986 0.0 
4.56409 3.94817 0.0 
4.86236 3.99286 0.0 
3.99581 3.98523 0.0 
4.27731 4.06666 0.0 
4.1059 4.04977 0.0 
3.98481 4.00073 0.0 
3.97761 4.0047 0.0 
8.39153 6.28241 0.0 
4.92306 3.97714 0.0 
1.14947 6.50178 0.0 
3.98558 4.00796 0.0 
4.0343 3.76211 0.0 
3.99968 4.00098 0.0 
4.92099 3.90766 0.0 
4.7358 4.0422 0.0 
4.02013 3.99948 0.0 
3.97726 3.98143 0.0 
9.04276 5.96039 0.0 
4.50259 3.97496 0.0 
3.99742 4.04784 0.0 
5.00018 3.98426 0.0 
4.00559 3.9892 0.0 
4.27037 4.11663 0.0 
4.07182 4.04198 0.0 
8.17975 3.04949 0.0 
4.02241 4.04141 0.0 
3.9487 4.03134 0.0 
4.02972 4.05235 0.0 
4.00551 4.01029 0.0 
4.01777 4.04818 0.0 
4.96756 4.0075 0.0 
5.04509 4.05427 0.0 
4.0266 3.96232 0.0 
4.7192 4.04461 0.0 
4.10695 3.94953 0.0 
13.0064 4.46872 0.0 
4.03827 3.99825 0.0 
4.66654 3.98193 0.0 
4.0672 4.11451 0.0 
4.7194 4.04324 0.0 
4.32133 4.07014 0.0 
4.27242 3.94793 0.0 
4.98817 4.01929 0.0 
3.95357 4.06538 0.0 
4.95636 3.99535 0.0 
4.00575 3.98505 0.0 
4.33858 3.85362 0.0 
4.0095 3.9843 0.0 
1.95889 1.48683 0.0 
7.27891 4.12614 0.0 
4.49415 4.07198 0.0 
4.93564 4.00544 0.0 
3.99904 3.97967 0.0 
3.94862 4.04213 0.0 
4.08055 4.01441 0.0 
5.00079 3.98878 0.0 
4.16261 4.08247 0.0 
4.74963 3.98685 0.0 
11.9705 3.97597 0.0 
8.94038 7.70202 0.0 
4.19295 3.90056 0.0 
4.59041 3.87827 0.0 
4.03638 3.96069 0.0 
4.00302 3.99276 0.0 
6.10749 4.09054 0.0 
10.8478 4.42307 0.0 
5.00794 4.01633 0.0 
3.97614 4.01755 0.0 
4.69461 4.04584 0.0 
5.46984 4.17168 0.0 
3.41732 2.85429 0.0 
4.07278 4.06212 0.0 
4.45071 3.97262 0.0 
4.05996 4.02956 0.0 
4.03701 3.98547 0.0 
12.7277 2.65896 0.0 
4.32713 4.06936 0.0 
8.98125 6.17249 0.0 
4.8938 4.01934 0.0 
4.01733 4.02086 0.0 
5.82009 4.18619 0.0 
4.40692 3.97225 0.0 
5.02176 4.00376 0.0 
4.0085 4.00662 0.0 
4.98987 3.99723 0.0 
5.90714 4.02762 0.0 
12.9703 4.84194 0.0 
4.44691 3.98392 0.0 
4.03831 3.95277 0.0 
4.42143 4.06822 0.0 
4.28981 4.11298 0.0 
4.52021 3.84766 0.0 
4.00032 4.00368 0.0 
4.01978 4.02634 0.0 
4.03491 4.00375 0.0 
12.0653 2.93014 0.0 
4.33581 4.07129 0.0 
4.54835 4.03462 0.0 
3.99511 3.99395 0.0 
5.15115 4.08142 0.0 
4.14347 4.06123 0.0 
12.0351 5.61266 0.0 
4.89135 4.15887 0.0 
5.00615 3.9761 0.0 
4.3406 3.98102 0.0 
3.97954 4.04522 0.0 
13.4854 0 0.0 
3.98276 4.03655 0.0 
3.99715 3.97563 0.0 
3.98686 4.01708 0.0 
4.51892 4.11391 0.0 
4.02944 6.04289 0.0 
3.6149 3.77738 0.0 
4.04122 3.94064 0.0 
4.096 3.95606 0.0 
4.78427 3.98895 0.0 
3.97814 4.00223 0.0 
4.07569 4.01841 0.0 
4.00969 4.01101 0.0 
4.99662 3.99682 0.0 
4.04825 4.08352 0.0 
7.01923 3.82209 0.0 
4.05331 4.02306 0.0 
4.651 4.14702 0.0 
4.05426 4.01086 0.0 
4.01556 4.01072 0.0 
4.00587 4.01462 0.0 
4.22706 3.96715 0.0 
4.99198 4.01221 0.0 
5.46882 5.68463 0.0 
8.51121 4.33185 0.0 
12.1347 7.75548 0.0 
4.40894 4.05264 0.0 
4.02744 3.08664 0.0 
3.05453 2.44659 0.0 
4.38574 4.06928 0.0 
5.0336 4.03132 0.0 
0.42318 6.33854 0.0 
4.00773 3.97774 0.0 
2.51373 2.62624 0.0 
3.993 4.0076 0.0 
4.15416 3.96777 0.0 
3.99796 4.00794 0.0 
4.14563 4.05914 0.0 
13.7338 2.87185 0.0 
4.84731 4.02724 0.0 
4.00628 3.98857 0.0 
6.12345 4.00567 0.0 
5.0074 4.01223 0.0 
4.0019 3.98209 0.0 
3.99583 3.96703 0.0 
4.99584 4.00263 0.0 
3.96675 4.00552 0.0 
7.91898 7.7998 0.0 
4.18675 4.05955 0.0 
11.4683 0.367385 0.0 
5.00917 4.00345 0.0 
3.96506 4.00818 0.0 
4.00659 4.03402 0.0 
4.00339 3.98299 0.0 
4.35681 3.97111 0.0 
12.164 2.52265 0.0 
4.02888 3.96492 0.0 
4.06738 3.95173 0.0 
1.11782 7.38763 0.0 
3.51703 3.91448 0.0 
4.54437 3.97789 0.0 
3.99736 3.98505 0.0 
5.01078 4.00519 0.0 
4.22251 4.06922 0.0 
4.28495 3.96836 0.0 
1.0567 5.69354 0.0 
4.94732 4.01043 0.0 
4.02015 3.95511 0.0 
3.95198 4.0195 0.0 
3.66499 4.48605 0.0 
5.00433 4.06698 0.0 
4.04006 4.0515 0.0 
3.99356 3.98674 0.0 
4.00757 3.98411 0.0 
[...]
<PointData>
  <DataArray type = "Float64" Name="Vitesse" NumberOfComponents="3" format="ascii">
1 0 0.0 
1.00759 0 0.0 
1.00615 0 0.0 
1 0 0.0 
0.306244 -0.0244238 0.0 
1.00892 0.000175748 0.0 
0.999968 0.000647674 0.0 
0.238717 0.00532601 0.0 
0.00303979 -0.000481528 0.0 
0.306585 0.165738 0.0 
-7.27696e-213 -1.67157e-214 0.0 
1.04981 -0.184717 0.0 
0.207976 0.0358789 0.0 
1.1907e-189 1.29017e-190 0.0 
1.01083 -0.00724174 0.0 
0 0 0.0 
0.565092 0.0526138 0.0 
1.00943 -0.00165499 0.0 
0.912281 -0.00663333 0.0 
0 0 0.0 
0.83686 0.360969 0.0 
0.00255282 -0.000437096 0.0 
0 0 0.0 
0.0193201 -0.000151985 0.0 
0.059657 -0.0182061 0.0 
1.00822 -0.000567478 0.0 
0.590178 -0.228149 0.0 
4.42958e-21 1.07056e-21 0.0 
1.01192 0.0348775 0.0 
1.0066 0 0.0 
0.869779 0.349485 0.0 
1.08845 -0.14254 0.0 
0.127722 0.0178755 0.0 
0.118654 0.0284303 0.0 
2.44259e-16 2.35119e-17 0.0 
1.07859 -0.0232852 0.0 
0.889096 -0.20137 0.0 
0.0242121 0.00511737 0.0 
0.201226 0.00444307 0.0 
0.2212 0.220584 0.0 
0.051047 0.00794116 0.0 
0.247348 0.00894217 0.0 
-8.40691e-249 -4.63579e-249 0.0 
0.180131 0.00982895 0.0 
1.00752 -0.000357982 0.0 
0.32046 0.196483 0.0 
0.670956 -0.0824222 0.0 
0.000240684 3.26373e-05 0.0 
0.141376 0.0246636 0.0 
0.0616569 -0.00128709 0.0 
0.192786 -0.293718 0.0 
0.00242667 -0.000117797 0.0 
0.714829 -0.0370177 0.0 
0.8601 0.255587 0.0 
1.00711 -0.0012832 0.0 
1.00802 0 0.0 
0.000353176 5.6781e-06 0.0 
1.00157 0.00851792 0.0 
0.97222 0.0387224 0.0 
0 0 0.0 
0.122117 0.011107 0.0 
0.913855 0.112068 0.0 
0 0 0.0 
0.365521 -0.00490009 0.0 
0.86003 0.0926806 0.0 
0.0663132 0.0144943 0.0 
0 0 0.0 
0.193815 -0.0262171 0.0 
0.392185 0.244476 0.0 
1.12823 0.0487675 0.0 
1.00997 0.0123926 0.0 
0.858575 -0.0044163 0.0 
0.564371 0.0810235 0.0 
0.5956 -0.0254 0.0 
0.435935 0.0071351 0.0 
0.373029 0.0475287 0.0 
1.00813 4.08307e-05 0.0 
0.73276 0.335921 0.0 
1.00573 -0.00368773 0.0 
0.0105791 -0.000781812 0.0 
0.151568 -0.0312986 0.0 
0.999953 0.00204334 0.0 
0.0137823 0.000771418 0.0 
0.0106135 -0.000359494 0.0 
1.01554e-09 -8.21408e-11 0.0 
0.871915 -0.0445123 0.0 
0.0118048 0.000106057 0.0 
0.339997 0.0399158 0.0 
1.00056 -0.000238148 0.0 
0.013685 -0.00471546 0.0 
0.0492571 -0.0030737 0.0 
0.323422 0.0178512 0.0 
0.0209195 -0.0121213 0.0 
0.332652 0.177343 0.0 
0.350704 -0.0172196 0.0 
0.0044955 0.000203323 0.0 
1.01306 -0.00286233 0.0 
0.198246 0.181214 0.0 
0.108148 0.0194295 0.0 
1.04674 -0.127043 0.0 
0.000124955 -1.28388e-06 0.0 
0.0262256 -0.000172929 0.0 
0 0 0.0 
0.0226548 -0.0044885 0.0 
0.717105 -0.0130872 0.0 
0.0555679 -0.0168425 0.0 
0.318571 0.234246 0.0 
0.121347 0.000652875 0.0 
0 0 0.0 
0.283053 0.0469674 0.0 
0.618215 0.369352 0.0 
1.01019 0.000363805 0.0 
0.803606 -0.373195 0.0 
0 0 0.0 
0.887487 -0.026042 0.0 
0.759106 0.32851 0.0 
0.913398 -0.131057 0.0 
0.111422 0.0350489 0.0 
0.207748 0.0494264 0.0 
0.0629821 -0.0176347 0.0 
1.00875 -0.000637726 0.0 
0.640001 0.0912787 0.0 
0.9942 -0.0106105 0.0 
-3.89173e-114 -2.4481e-115 0.0 
0.0637781 0.00341237 0.0 
0.646434 0.182364 0.0 
0.72381 0.121581 0.0 
0.0038643 -0.000462129 0.0 
0.72131 0.156334 0.0 
0 0 0.0 
0.999474 -0.00055898 0.0 
0.0247404 0.000261413 0.0 
0.954066 -0.00376743 0.0 
4.64611e-35 -1.10641e-36 0.0 
0.742737 -0.128332 0.0 
1.00853 8.20072e-05 0.0 
-3.56176e-180 -3.39467e-181 0.0 
0.628982 0.154842 0.0 
0.956856 -0.0386029 0.0 
0.475718 0.329322 0.0 
0.41631 -0.0388086 0.0 
1.00878 0.000244166 0.0 
-2.76143e-300 8.13589e-301 0.0 
8.16998e-07 -5.29203e-08 0.0 
0.945271 -0.0505552 0.0 
0.632498 0.28553 0.0 
-3.727e-102 -4.75418e-102 0.0 
0.0176366 0.000929205 0.0 
0.299591 0.0180876 0.0 
3.00089e-24 1.55319e-25 0.0 
1.00854 0.00128973 0.0 
0.00529972 0.0003293 0.0 
0.0106307 0.000476991 0.0 
0.205866 -0.00988241 0.0 
0.0878529 -0.00920137 0.0 
1.00202 0.0017324 0.0 
0.000993853 -9.80091e-05 0.0 
7.93958e-14 1.06906e-14 0.0 
0.134835 0.00939714 0.0 
1.00974 -0.00100323 0.0 
1.0005 -0.000465043 0.0 
1.00783 -0.000308091 0.0 
1.00202 -0.000375017 0.0 
0.599953 0.338388 0.0 
0.0493953 -0.116782 0.0 
0.0106334 0.000444889 0.0 
0.478777 -0.445267 0.0 
0.477721 0.172989 0.0 
-1.6641e-265 1.05974e-266 0.0 
1.00931 0.000276484 0.0 
0 0 0.0 
0.46046 -0.0125055 0.0 
4.99546e-102 5.57752e-103 0.0 
0.0442578 -0.0069158 0.0 
1.00968 0.000609539 0.0 
0.396657 -0.0279211 0.0 
1.00853 -0.00127713 0.0 
0.851273 0.00199893 0.0 
1.0117 0.000178152 0.0 
0.256336 -0.0229674 0.0 
3.0322e-160 9.97057e-161 0.0 
0.47905 -0.0542623 0.0 
0.39908 -0.0226438 0.0 
0.59458 -0.346493 0.0 
0.109951 0.0104948 0.0 
1.00871 -0.000336842 0.0 
1.00016 0.000636168 0.0 
1.00844 0.00018886 0.0 
0.314852 0.268647 0.0 
0.00430738 0.000568649 0.0 
0.1051 0.00410959 0.0 
0 0 0.0 
0.990638 -0.0153223 0.0 
0.154951 -0.0103105 0.0 
1.00887 -2.7759e-05 0.0 
1.00768 0 0.0 
1.15619e-286 1.0524e-287 0.0 
0.185196 0.0111808 0.0 
0.222379 -0.0430289 0.0 
0.261362 -0.0290554 0.0 
0.0540545 -0.00170645 0.0 
0 0 0.0 
0.967113 0.0084368 0.0 
0.311457 -0.00840827 0.0 
1.00762 0 0.0 
0.59296 0.0783669 0.0 
0.943824 0.00225296 0.0 
1.00006 0.00267119 0.0 
0.759673 0.199122 0.0 
0.00887166 -0.000256156 0.0 
0 0 0.0 
0.433406 0.111304 0.0 
0.156306 0.0057226 0.0 
1.00016 -0.000660591 0.0 
-8.06688e-296 2.37671e-296 0.0 
0.606412 0.314619 0.0 
0 0 0.0 
0.769057 -0.338432 0.0 
0.460417 -0.191875 0.0 
0.00244234 -0.000272233 0.0 
0.371725 -0.328045 0.0 
0.00399674 0.000681657 0.0 
0.459037 -0.0290894 0.0 
0.0635783 0.00603059 0.0 
0.00667894 0.000168662 0.0 
1.00873 -0.000953614 0.0 
1.00808 -0.000952514 0.0 
0.0635655 -0.0129534 0.0 
1.04976 0.0739382 0.0 
0.0189263 0.00140082 0.0 
0.849714 -0.119553 0.0 
0.227549 0.00984544 0.0 
0.226145 -0.0913195 0.0 
0.157819 -0.0165835 0.0 
0.244817 0.0127445 0.0 
0.142804 -0.120919 0.0 
0.0154029 -0.000713667 0.0 
0.0709754 0.00899143 0.0 
6.12504e-31 2.7655e-32 0.0 
1.80103e-05 -1.02996e-06 0.0 
0.0286676 -0.00842395 0.0 
1.00358 0.00105834 0.0 
2.70289e-59 1.07581e-59 0.0 
0.00767846 0.000882964 0.0 
0.872908 0.00424824 0.0 
0.541319 0.2995 0.0 
0.347221 -0.0256491 0.0 
1.0785e-05 9.41148e-08 0.0 
0.185761 0.0220052 0.0 
0.503561 0.00991202 0.0 
5.26888e-256 2.53051e-257 0.0 
0.7085 -0.378088 0.0 
1.00002 0.00108416 0.0 
0.00379028 -0.000236279 0.0 
0.828202 -0.364415 0.0 
1.00862 0.000155552 0.0 
0.772297 -0.286519 0.0 
0.166503 0.00268402 0.0 
0.833517 0.0018985 0.0 
1.00669 0 0.0 
1.00893 -0.000246081 0.0 
0.0329012 -0.0117408 0.0 
0.818026 0.366485 0.0 
0.685741 -0.255933 0.0 
0.676223 0.243252 0.0 
0.969939 0.303311 0.0 
0.0667756 -0.00142305 0.0 
0.710937 0.271041 0.0 
1.00904 -0.000727783 0.0 
1.00932 0.00156393 0.0 
0.276354 -0.346863 0.0 
0.377171 -0.001506 0.0 
0.704943 0.375411 0.0 
0.0180265 0.000891203 0.0 
0.0746192 0.0316027 0.0 
0.967553 0.237535 0.0 
1.00001 -0.000169614 0.0 
0 0 0.0 
0.726629 0.308173 0.0 
0.15631 0.0070894 0.0 
0.0636578 0.067782 0.0 
0.288282 0.0630379 0.0 
0.344817 -0.0239617 0.0 
-1.38137e-142 -1.02105e-143 0.0 
0.608065 -0.292005 0.0 
0.0864759 0.00426352 0.0 
0.76154 0.30539 0.0 
0 0 0.0 
0.498436 0.107838 0.0 
0.0527814 0.0142997 0.0 
1.00547 0.00435274 0.0 
0.424016 -0.123444 0.0 
0.378288 0.0104683 0.0 
0.000164317 1.27456e-05 0.0 
0.57884 -0.433324 0.0 
-4.41099e-79 -9.82436e-81 0.0 
0.0398455 0.0130926 0.0 
0.448294 -0.100126 0.0 
0.54074 -0.0338814 0.0 
1.00904 -0.00122703 0.0 
0.17348 0.00827679 0.0 
1.00038 0.0014218 0.0 
0.439191 0.025333 0.0 
1.00871 -0.0955189 0.0 
0.00577629 -0.0347069 0.0 
0.820503 0.0278722 0.0 
0.0063408 -0.000788756 0.0 
-1.62744e-296 1.0364e-297 0.0 
0.66692 -0.217727 0.0 
1.00893 -0.00115485 0.0 
0.009428 0.000653434 0.0 
0.749937 0.279369 0.0 
0.150131 0.0177535 0.0 
0.19455 -0.174919 0.0 
1.04223 0.0989664 0.0 
0.0656314 0.0192666 0.0 
1.00987 0.000778583 0.0 
0.767978 0.367455 0.0 
0.746774 0.0635428 0.0 
0.864422 0.355317 0.0 
1.0975e-158 4.10479e-159 0.0 
0.814082 0.357216 0.0 
0.00151934 -0.000357067 0.0 
0.282363 -0.0315386 0.0 
0.943155 -0.334624 0.0 
0.0100324 -0.000851198 0.0 
0.744019 -0.0905876 0.0 
1.01001 -7.38468e-05 0.0 
0 0 0.0 
0.0133114 0.000729185 0.0 
1.00398 0.232295 0.0 
8.78702e-06 -1.53451e-07 0.0 
0.0324793 0.000827518 0.0 
0.409112 -0.00300348 0.0 
0.0458681 -0.00987516 0.0 
0.810044 0.127492 0.0 
0.0162168 0.000468634 0.0 
0.495242 -0.352831 0.0 
1.08805 -0.0409747 0.0 
0.402015 -0.241919 0.0 
1.00096 -0.00210465 0.0 
0.875838 -0.0068922 0.0 
0.11834 -0.0055617 0.0 
9.12361e-49 -9.1069e-50 0.0 
0.696485 -0.448546 0.0 
0.767465 0.0876328 0.0 
1e-307 1e-307 0.0 
0.109108 0.0164047 0.0 
0.814729 0.134144 0.0 
0.00335899 0.000201642 0.0 
0.813432 0.00200553 0.0 
1.00786 -0.000179259 0.0 
1.09247 -0.0914044 0.0 
1.01901 0.000514002 0.0 
0.923522 -0.280542 0.0 
0.0847884 -0.0911181 0.0 
0.749644 -0.0137446 0.0 
1.0105 -0.000893137 0.0 
0.0438071 -0.0167521 0.0 
0.590467 0.0808094 0.0 
0.000754375 -8.30033e-05 0.0 
0.985557 -0.0294046 0.0 
1.00096 -0.0122636 0.0 
0.858121 0.254839 0.0 
0.0142942 0.00134422 0.0 
0 0 0.0 
-3.38364e-154 3.03518e-155 0.0 
1.01003 0.000187282 0.0 
0.0162812 0.000499676 0.0 
1.00877 -0.00105713 0.0 
0.00158004 -0.000154876 0.0 
6.76598e-06 4.64845e-06 0.0 
0.991213 -0.0168832 0.0 
0.000258777 1.81357e-05 0.0 
0.0480489 -7.80836e-05 0.0 
0 0 0.0 
0.0156255 0.000528227 0.0 
0.484675 -0.00497525 0.0 
1.00875 -2.9291e-05 0.0 
-6.12244e-86 -8.04877e-87 0.0 
1.00966 -0.295134 0.0 
0.0148015 -0.000623236 0.0 
0.982003 0.079708 0.0 
1.07135 -0.0104331 0.0 
0.0061367 0.00543133 0.0 
0.323672 0.168841 0.0 
-6.84157e-266 4.3569e-267 0.0 
1.00992 0.000576636 0.0 
0.0556628 -0.000179635 0.0 
2.64508e-122 -4.59139e-125 0.0 
0.334796 -0.348659 0.0 
0.55646 -0.0394652 0.0 
0.24449 0.0371642 0.0 
1.00839 -0.000462874 0.0 
1.01677 -0.0441342 0.0 
0.227691 0.0232192 0.0 
9.9039e-60 5.5266e-61 0.0 
0.726929 0.191495 0.0 
1.00765 0 0.0 
0.677636 0.199255 0.0 
0.738432 -0.409035 0.0 
0.500627 0.152366 0.0 
0.779547 -0.00991168 0.0 
1.01052 0.00756005 0.0 
0.967948 -0.0246249 0.0 
1.03584 -0.273338 0.0 
0.592899 -0.0752278 0.0 
4.09655e-220 2.69994e-221 0.0 
0.536695 -0.0621387 0.0 
0 0 0.0 
-3.47332e-122 -1.32065e-122 0.0 
0.0271447 0.00246977 0.0 
0.965294 0.285164 0.0 
0.979321 0.00247485 0.0 
2.19215e-81 5.64161e-82 0.0 
1.01823 -0.0220962 0.0 
1.14283e-217 -6.68474e-219 0.0 
0 0 0.0 
0.149576 0.143041 0.0 
0.0109991 -0.000337046 0.0 
0.0255823 -0.00748392 0.0 
1.01659 -0.000807475 0.0 
1.00918 -0.00172624 0.0 
1.00662 -6.07464e-05 0.0 
0 0 0.0 
1.01176 -0.0225196 0.0 
1.00136 -0.00745414 0.0 
0.0184863 -0.000137888 0.0 
0.117776 -0.0214367 0.0 
1.00003 0.000517561 0.0 
0.744212 -0.428616 0.0 
0.999469 -0.00510781 0.0 
0.282446 0.0771347 0.0 
2.2615e-14 2.56034e-16 0.0 
0.153142 0.13819 0.0 
0.14375 0.0230634 0.0 
1.0092 0.000205857 0.0 
0.00441904 -0.000422544 0.0 
0.213151 -0.175347 0.0 
0.512448 -0.000389786 0.0 
0.0331833 -0.0149845 0.0 
0.657687 -0.463722 0.0 
0.802052 -0.352266 0.0 
0.00383811 -0.000951427 0.0 
0.633375 -0.02589 0.0 
1.00854 -0.000144896 0.0 
-5.30958e-234 -4.20188e-235 0.0 
1.00797 4.78384e-05 0.0 
0.0276626 -0.00439382 0.0 
0.64503 -0.00894347 0.0 
0.680948 0.366576 0.0 
0.625178 -0.447122 0.0 
1.27245e-06 7.46892e-08 0.0 
1.00958 0.000261032 0.0 
0.888077 -0.30556 0.0 
0.916584 -0.185066 0.0 
1.0005 0.000597585 0.0 
0.963611 -0.00607602 0.0 
0.000273653 3.3089e-05 0.0 
0.583447 -0.45073 0.0 
0.0291888 -0.00652987 0.0 
0.161809 0.0140321 0.0 
0.00853266 0.000489984 0.0 
1.00005 0.00162907 0.0 
6.53371e-05 -7.89897e-06 0.0 
0.968436 -0.34216 0.0 
0.717338 0.0322926 0.0 
0.984917 0.0347626 0.0 
0.372962 -0.0366529 0.0 
0.850548 0.331511 0.0 
0.547017 -0.39747 0.0 
0.49176 -0.31868 0.0 
1.00935 0.000215356 0.0 
0.974656 0.175497 0.0 
0.986947 -0.00342905 0.0 
0.561389 -0.207587 0.0 
0.806333 0.165857 0.0 
0.895316 -0.119686 0.0 
0.246738 0.237932 0.0 
0.776589 0.0643037 0.0 
1.01104 -0.00134274 0.0 
0.697208 -0.159927 0.0 
1.00001 -0.000529589 0.0 
0.999784 0.00250519 0.0 
-1.28466e-288 -4.3549e-289 0.0 
0.616317 -0.116506 0.0 
0.988375 -0.00582352 0.0 
0.104661 -0.17674 0.0 
0.0531105 0.00190469 0.0 
0 0 0.0 
0.252894 -0.340316 0.0 
0.158565 -0.252047 0.0 
0.0298783 0.00940922 0.0 
0.642959 -0.396337 0.0 
0.444973 -0.0390834 0.0 
0 0 0.0 
0 0 0.0 
0.655817 0.00911772 0.0 
0.843874 0.343236 0.0 
0.00750976 0.00112994 0.0 
0.969388 -0.00439521 0.0 
0.030363 -0.0128943 0.0 
0.742886 0.303702 0.0 
0.619293 0.0111753 0.0 
0.142789 0.0593889 0.0 
0.957678 -0.0362543 0.0 
1.00738 -0.000346012 0.0 
0.0773712 0.0161465 0.0 
0.858317 -0.402438 0.0 
0.0104993 0.000673017 0.0 
1.0081 6.77855e-05 0.0 
0.408617 -0.0794578 0.0 
-3.61336e-244 -4.10041e-245 0.0 
0.949253 -0.0227964 0.0 
0.759646 0.113059 0.0 
0.676233 -0.367234 0.0 
1.00494 0.0011332 0.0 
0.593751 -0.143029 0.0 
0.703764 -0.00834415 0.0 
0.554414 -0.0223358 0.0 
0.127956 -0.0516517 0.0 
1.00926 -0.00216792 0.0 
1.00926 0.0002253 0.0 
1.00056 0.00429575 0.0 
0.0723964 0.00670567 0.0 
0.664636 -0.0135962 0.0 
0.999949 -0.000486688 0.0 
1.00827 9.85622e-05 0.0 
0.614459 -0.462597 0.0 
9.64628e-05 2.52356e-06 0.0 
4.18241e-10 -4.439e-11 0.0 
0.311677 -0.261528 0.0 
1.00499 -0.00287488 0.0 
1.00888 -0.00229418 0.0 
0.470285 -0.0250766 0.0 
0.0371195 -0.00837132 0.0 
0.210551 0.0965219 0.0 
0.690997 0.137191 0.0 
0.138481 -0.206539 0.0 
0.0794843 -0.0183 0.0 
0.155143 -0.0556391 0.0 
0.0163927 0.000750435 0.0 
0.0353861 0.00206128 0.0 
0.0557102 -0.00630286 0.0 
0.494669 0.235964 0.0 
0.999663 -0.00398277 0.0 
0.00649553 0.000532475 0.0 
-3.57023e-97 -3.99872e-98 0.0 
0.883831 -0.0146778 0.0 
0.157545 0.0229095 0.0 
-2.20982e-146 -1.63342e-147 0.0 
1.06344 0.168711 0.0 
0.99887 -0.000142308 0.0 
0.396775 -0.225663 0.0 
0.0157747 0.000708168 0.0 
0.0414405 0.0531966 0.0 
0.116556 0.140842 0.0 
0.0237581 -0.00417142 0.0 
0.986911 -0.299027 0.0 
0.0612949 -0.00495439 0.0 
0.083179 0.00398132 0.0 
0.698386 -0.239998 0.0 
0.503665 -0.0128399 0.0 
0.304435 0.0843461 0.0 
1.01014 0.000522857 0.0 
1.00388 0.00268736 0.0 
0.0414555 0.000223728 0.0 
6.52603e-22 -5.29741e-23 0.0 
2.13966e-13 4.49827e-15 0.0 
0.906169 -0.392088 0.0 
1.00784 9.22762e-05 0.0 
0.83876 -0.333094 0.0 
0.0108742 -0.00128205 0.0 
0 0 0.0 
0.268765 0.106728 0.0 
1.01509 0.00246506 0.0 
0.00696181 0.00888296 0.0 
0.784104 -0.276655 0.0 
1.02819 -0.166323 0.0 
2.50016e-44 -1.93135e-47 0.0 
0.419097 0.051915 0.0 
0.537032 -0.111764 0.0 
0.0617452 -0.00480679 0.0 
0.227393 0.204211 0.0 
0.00567538 -0.000824218 0.0 
0.837005 -0.421995 0.0 
0.751334 -0.00233294 0.0 
1.08808 0.110176 0.0 
1.01375 -0.00156115 0.0 
0.213227 0.00561118 0.0 
0 0 0.0 
0.834982 -0.419102 0.0 
0.34296 0.134495 0.0 
0.0482287 -0.0166195 0.0 
1.01169 -0.0126743 0.0 
1.02192 0.000686308 0.0 
0.999954 0.00142824 0.0 
6.04844e-175 -3.73609e-176 0.0 
0.426909 0.302089 0.0 
1.56541e-71 2.0322e-72 0.0 
1.00999 0.00132044 0.0 
0.0140027 0.00115371 0.0 
0.999985 -0.000594704 0.0 
0.0386148 0.0101316 0.0 
0.571715 0.0115111 0.0 
0.65299 -0.353043 0.0 
0.130711 -0.0199129 0.0 
0.125736 0.0205864 0.0 
1.12803 0.0692976 0.0 
0.238316 0.00255806 0.0 
0.999908 -0.000715194 0.0 
0 0 0.0 
0.910114 -0.0270621 0.0 
1.006 -0.00289484 0.0 
1.00787 0.0257301 0.0 
0.516511 -0.0774409 0.0 
0.84317 0.149859 0.0 
1.11835 0.139586 0.0 
1.00425 -0.00413545 0.0 
0.845309 0.127026 0.0 
-4.61522e-241 -9.74557e-243 0.0 
0.122884 -0.00647239 0.0 
0.00108294 -9.14716e-05 0.0 
1.0094 -0.00042911 0.0 
0.0025159 -0.000307741 0.0 
3.27207e-05 7.19986e-07 0.0 
0.568236 -0.0639281 0.0 
0.0692338 -0.00943079 0.0 
0.0916241 0.0184338 0.0 
0.455929 0.288822 0.0 
0.902895 0.260167 0.0 
5.59808e-07 2.19072e-07 0.0 
0.870103 -0.0483241 0.0 
0.720428 0.0352383 0.0 
0.0159875 0.000857071 0.0 
0.0786456 -0.00457347 0.0 
1.00983 0.000719603 0.0 
1.00862 0.000228532 0.0 
1.11677 0.0979788 0.0 
0.142481 0.0640941 0.0 
1.04966 -0.0446551 0.0 
0.252399 0.138743 0.0 
1.00812 0.000137207 0.0 
0.999201 -0.00155782 0.0 
1.9367e-46 1.02246e-47 0.0 
1.07664 -0.0708483 0.0 
0.0406183 0.00665503 0.0 
0 0 0.0 
0.0979398 0.016395 0.0 
1.29762e-24 -7.56133e-26 0.0 
1.89435e-129 2.34477e-130 0.0 
3.53696e-06 5.04361e-07 0.0 
0.0803375 -0.0121527 0.0 
0 0 0.0 
1.00912 -0.00128603 0.0 
1.00955 0 0.0 
1.00824 0.000135145 0.0 
0.700867 -0.0384373 0.0 
0.000272591 3.11603e-05 0.0 
3.71286e-05 3.03649e-06 0.0 
1.00712 -0.00028022 0.0 
0 0 0.0 
6.63078e-36 4.01792e-37 0.0 
0.671526 0.0618699 0.0 
0.0582609 0.0102294 0.0 
1.00895 -0.00694519 0.0 
0.204749 -0.00139789 0.0 
1.91387e-33 -3.69129e-34 0.0 
0.754866 0.349515 0.0 
0.749963 -0.0416003 0.0 
0 0 0.0 
2.05731e-21 -4.69371e-23 0.0 
0.399352 -0.0097981 0.0 
0.695405 0.0666009 0.0 
0.999686 -0.00197834 0.0 
0.876125 0.328587 0.0 
1.00231 0.00490761 0.0 
0.695596 -0.338669 0.0 
1.53969e-14 -1.46147e-16 0.0 
0.00176624 -0.000357956 0.0 
1.00674 0.00326445 0.0 
1.00928 -0.000957089 0.0 
1.00839 0.000412056 0.0 
4.41633e-06 -9.27653e-07 0.0 
1.00246 -0.000525071 0.0 
0.00440015 -5.44748e-06 0.0 
0.210396 -0.00586879 0.0 
1.00853 0.000208958 0.0 
0.503182 -0.0396118 0.0 
0.780245 -0.323257 0.0 
-1.00975e-208 -2.31948e-210 0.0 
0.00433659 0.000478595 0.0 
0.0112088 -0.00280069 0.0 
0.0882696 -0.0178783 0.0 
0.287209 -0.0284412 0.0 
0.058771 -0.00836209 0.0 
0.59231 0.13913 0.0 
0.7339 -0.246004 0.0 
0.766229 -0.41742 0.0 
0.998783 -0.00404266 0.0 
0.0221064 0.0072975 0.0 
1.01044 -0.00262747 0.0 
0.977538 -0.0405101 0.0 
-3.48881e-130 -2.19464e-131 0.0 
0.100641 0.0214666 0.0 
0.703058 0.00333453 0.0 
3.47498e-18 -3.32572e-19 0.0 
0 0 0.0 
0.00534769 0.000853002 0.0 
0.1269 0.0172559 0.0 
1.01216 0.000220421 0.0 
0.818989 0.0732582 0.0 
0.0250593 -0.00220144 0.0 
0.74553 -0.0451305 0.0 
0.00947575 0.000284747 0.0 
1.004 -0.00060348 0.0 
0.012176 0.00033091 0.0 
0.997097 -0.118405 0.0 
0.622159 -0.00477037 0.0 
0.964248 -0.00263357 0.0 
1.00784 8.14294e-05 0.0 
0.00639927 -0.000182751 0.0 
1.08096 -0.023779 0.0 
1 0 0.0 
0.00640616 0.000153421 0.0 
0.10834 -0.019726 0.0 
1.01274 -0.00174053 0.0 
0.012758 0.000392717 0.0 
0.802438 -0.440105 0.0 
1.0117 -0.000945756 0.0 
1.00723 -0.000138921 0.0 
1.00778 -0.0315645 0.0 
0.063581 0.0012966 0.0 
0.846659 0.0351148 0.0 
0.593515 0.167856 0.0 
0.469524 -0.277427 0.0 
1.00829 0.000144983 0.0 
5.73816e-14 5.34282e-15 0.0 
0.612819 0.128889 0.0 
1.00963 -0.001106 0.0 
0.0508383 0.00449051 0.0 
1.0475 -0.0250553 0.0 
1.01085 0.00152255 0.0 
1.01067 0.000992496 0.0 
0.54484 0.304915 0.0 
1.00847 1.522e-290 0.0 
0.291513 -0.0231043 0.0 
1.04724 -0.0111696 0.0 
1.01024 0.000302131 0.0 
0.991576 0.128486 0.0 
0.713707 -0.438024 0.0 
4.71201e-210 -2.75619e-211 0.0 
0 0 0.0 
0.0220561 -0.000819208 0.0 
0.00638963 -0.000680772 0.0 
0.130398 -0.0234578 0.0 
1.00848 -0.000634344 0.0 
0.0338609 -0.000647856 0.0 
1.00873 0 0.0 
0.015783 0.00742486 0.0 
0.0301671 0.00513273 0.0 
1.56903e-127 1.03225e-128 0.0 
0.0585971 0.000967871 0.0 
1.02554 -0.0277047 0.0 
0.418077 -0.425299 0.0 
0.373735 0.0255768 0.0 
1.05135 0.199696 0.0 
0.145117 -0.0232065 0.0 
1.00084 0.00174027 0.0 
1.11504 0.0497734 0.0 
0.023462 -0.00766691 0.0 
2.14332e-81 8.53057e-82 0.0 
0.741459 -0.0189761 0.0 
0.104695 -0.0206549 0.0 
0.718922 -0.401652 0.0 
0.670674 -0.00543059 0.0 
0.648521 -0.103666 0.0 
1.0006 0.00176228 0.0 
1.00874 0.000253959 0.0 
1.0001 0.00104996 0.0 
0.35497 0.18384 0.0 
0.00662085 0.000413034 0.0 
1.0105 -0.000762404 0.0 
1.18522e-45 -1.61744e-46 0.0 
1.00865 0.000217021 0.0 
0 0 0.0 
0.245858 -0.338845 0.0 
0.472376 0.190591 0.0 
1.00695 -0.000227483 0.0 
0.248736 0.240143 0.0 
0.95014 0.318548 0.0 
0.445754 0.0918509 0.0 
0.988801 -0.109619 0.0 
0.298281 0.0273759 0.0 
1.00942 -0.00418456 0.0 
0 0 0.0 
1.00361 -0.00134779 0.0 
1.00869 0.00025844 0.0 
0.65215 -0.163982 0.0 
0.359736 -0.008614 0.0 
1.00994 -0.00445508 0.0 
0.256856 0.170871 0.0 
1.00929 0.000317217 0.0 
0.144712 0.00255214 0.0 
0.0155452 0.00543899 0.0 
1.00832 -0.00057045 0.0 
0.630021 -0.0479142 0.0 
-1.20494e-88 9.49265e-90 0.0 
0.326488 0.00132775 0.0 
0.0222983 -0.000202968 0.0 
1.01362 0.00405432 0.0 
1.00028 0.000764129 0.0 
0.285519 -0.0200477 0.0 
0.151886 -0.00168034 0.0 