<VTKFile type="UnstructuredGrid" version="0.1" byte_order="LittleEndian">
  <UnstructuredGrid>
    <Piece NumberOfPoints="12765" NumberOfCells="25369">
      <Points>
        <DataArray type = "Float64" NumberOfComponents="3" format="ascii">
0 0 0.0 
14 0 0.0 
14 8 0.0 
0 8 0.0 
4.16782 4.09801 0.0 
4.18147 4.06043 0.0 
13.7476 7.47597 0.0 
4.3499 4.09247 0.0 
4.09208 3.95602 0.0 
4.4031 4.05639 0.0 
4.33592 4.0755 0.0 
4.71616 3.98472 0.0 
4.08941 3.95076 0.0 
4.65074 5.63757 0.0 
3.96554 4.00011 0.0 
4.00189 3.99599 0.0 
4.41251 4.06978 0.0 
8.32355 0.844616 0.0 
4.96942 4.00586 0.0 
4.94333 4.02649 0.0 
4.01323 3.99894 0.0 
5.08169 4.0101 0.0 
4.25007 4.10489 0.0 
4.17926 4.05465 0.0 
4.71752 3.98428 0.0 
8.72823 1.85216 0.0 
4.98523 3.99714 0.0 
4.00962 4.08349 0.0 
4.73324 0.451571 0.0 
4.22838 4.07126 0.0 
4.96284 4.02182 0.0 
4.36723 4.05555 0.0 
0 0.602561 0.0 
14 5.51453 0.0 
4.71345 4.04534 0.0 
4.06244 3.99778 0.0 
4.18238 3.96351 0.0 
4.17759 3.97818 0.0 
4.09533 4.03459 0.0 
4.00922 3.99881 0.0 
4.9522 4.04327 0.0 
5.01574 4.0132 0.0 
4.92946 3.95679 0.0 
4.98223 4.00538 0.0 
4.91465 3.80243 0.0 
4.05073 3.98233 0.0 
3.93682 3.99751 0.0 
4.11094 4.03801 0.0 
4.23764 3.97433 0.0 
6.88533 6.7293 0.0 
4.19353 4.07857 0.0 
4.57845 3.96828 0.0 
4.3654 4.05303 0.0 
4.19813 3.9367 0.0 
3.03862 2.44683 0.0 
4.01706 3.99618 0.0 
4.02815 4.04832 0.0 
10.4367 3.73502 0.0 
4.14781 4.05627 0.0 
4.06961 4.04012 0.0 
4.10619 4.04581 0.0 
8.12677 3.49541 0.0 
4.18261 4.06656 0.0 
4.41206 4.06828 0.0 
4.0018 3.99395 0.0 
4.64104 4.05125 0.0 
4.61386 4.06549 0.0 
4.01647 3.99236 0.0 
4.85309 4.00911 0.0 
2.50209 4.92303 0.0 
4.08051 3.82931 0.0 
4.89735 4.01814 0.0 
4.0339 4.05256 0.0 
4.24217 3.88783 0.0 
4.0192 3.99331 0.0 
3.96023 4.01528 0.0 
4.22826 4.09621 0.0 
4.97524 4.02614 0.0 
4.17785 3.95317 0.0 
4.04112 3.9778 0.0 
5.00785 4.00312 0.0 
10.8833 7.73481 0.0 
3.99379 4.00703 0.0 
14 6.11123 0.0 
4.18442 4.04414 0.0 
4.07529 3.94387 0.0 
3.96293 3.99513 0.0 
4.03552 3.9772 0.0 
5.5541 5.66724 0.0 
4.56458 4.05873 0.0 
5.63383 5.91153 0.0 
3.99561 3.97379 0.0 
3.88293 4.06948 0.0 
5.0047 4.00229 0.0 
4.00779 3.98649 0.0 
4.28403 3.91733 0.0 
11.025 6.86165 0.0 
3.99922 3.99464 0.0 
5.03684 4.01469 0.0 
4.08338 3.97054 0.0 
4.04894 3.98467 0.0 
4.45596 4.08921 0.0 
5.06876 4.0204 0.0 
4.0634 4.04854 0.0 
6.92592 4.0302 0.0 
14 5.21618 0.0 
4.57509 3.97945 0.0 
4.39185 3.97195 0.0 
4.6485 3.96073 0.0 
4.28749 4.07809 0.0 
3.94943 3.96456 0.0 
4.45639 3.97342 0.0 
4.76751 4.0543 0.0 
4.80536 4.01156 0.0 
4.37425 4.0854 0.0 
5.012 4.10727 0.0 
9.50544 0.554648 0.0 
4.35343 3.94951 0.0 
4.44254 3.97291 0.0 
4.30001 6.0012 0.0 
9.40261 1.25813 0.0 
4.35332 4.06183 0.0 
3.05817 4.59047 0.0 
4.34569 4.08404 0.0 
1.36418 3.96174 0.0 
4.37798 8 0.0 
4.12623 4.0709 0.0 
4.08373 4.05666 0.0 
4.09568 4.05562 0.0 
11.149 4.29374 0.0 
2.5587 5.71188 0.0 
4.27852 0 0.0 
5.04845 4.04311 0.0 
4.29262 4.07791 0.0 
4.0229 4.0327 0.0 
4.1152 4.05303 0.0 
4.13434 4.07811 0.0 
4.26328 3.91582 0.0 
4.75225 3.98798 0.0 
4.94508 4.01115 0.0 
4.70266 8 0.0 
4.95019 4.01056 0.0 
3.96003 4.10895 0.0 
4.14183 3.94415 0.0 
4.35017 3.94589 0.0 
4.25505 4.06012 0.0 
4.22225 3.98357 0.0 
10.6026 4.28371 0.0 
5.52872 3.97338 0.0 
4.1741 4.07586 0.0 
3.96394 3.89592 0.0 
13.1171 3.78692 0.0 
4.84472 4.02762 0.0 
4.93392 4.05029 0.0 
0.67253 3.97122 0.0 
9.779 0.219905 0.0 
3.91267 2.38613 0.0 
4.02873 4.0411 0.0 
4.88146 4.04087 0.0 
4.12102 4.0519 0.0 
4.08859 4.05676 0.0 
4.0826 3.93583 0.0 
4.12779 4.12531 0.0 
4.1113 4.05045 0.0 
4.12124 3.98374 0.0 
4.36027 4.08767 0.0 
4.40853 3.97096 0.0 
4.82594 4.03007 0.0 
4.02004 4.03743 0.0 
4.24743 3.99271 0.0 
5.00959 4.08794 0.0 
4.99458 4.03862 0.0 
4.24578 4.08867 0.0 
4.02244 4.02798 0.0 
4.21763 3.94275 0.0 
4.12635 4.07409 0.0 
0 1.4212 0.0 
3.93713 4.10328 0.0 
4.15953 4.06374 0.0 
4.066 3.97126 0.0 
4.9614 3.98808 0.0 
5.64975 4.12482 0.0 
4.36864 4.06898 0.0 
4.25777 4.07923 0.0 
4.9908 4.01037 0.0 
9.95529 0.776257 0.0 
4.0644 3.93891 0.0 
10.5039 7.07557 0.0 
4.16503 4.11076 0.0 
4.87787 3.9732 0.0 
4.45044 4.06666 0.0 
4.99301 4.00361 0.0 
4.19206 3.91938 0.0 
4.0293 3.98313 0.0 
4.41558 4.05658 0.0 
4.09641 3.95124 0.0 
4.12454 3.92729 0.0 
4.08491 4.0641 0.0 
3.96293 4.03138 0.0 
3.99114 3.9585 0.0 
4.06298 3.99231 0.0 
4.35916 4.0592 0.0 
4.20263 4.07568 0.0 
3.98473 3.9297 0.0 
4.21125 3.95113 0.0 
3.99252 4.00665 0.0 
4.51604 3.97523 0.0 
4.17636 4.06982 0.0 
4.01378 4.004 0.0 
2.56604 7.44797 0.0 
3.94066 3.96869 0.0 
8.58578 3.36133 0.0 
3.95819 3.97698 0.0 
14 1.82768 0.0 
4.09805 3.948 0.0 
4.23165 4.07938 0.0 
4.38965 4.07646 0.0 
4.15636 4.04974 0.0 
3.95778 3.98461 0.0 
3.81869 3.90538 0.0 
3.9419 3.97853 0.0 
4.19057 4.05281 0.0 
4.15124 4.04466 0.0 
4.10081 3.94382 0.0 
4.00891 4.00797 0.0 
1.42766 7.23915 0.0 
6.88398 4.79117 0.0 
3.99651 4.05409 0.0 
4.37903 4.07058 0.0 
4.22913 4.08121 0.0 
5.00368 4.02219 0.0 
4.05153 4.03995 0.0 
3.9771 4.03148 0.0 
5.02189 4.01094 0.0 
4.34707 4.05408 0.0 
6.60326 3.80912 0.0 
4.15561 4.10177 0.0 
4.18309 4.12442 0.0 
3.96476 4.03852 0.0 
4.39631 4.08365 0.0 
3.99129 4.00357 0.0 
3.96822 4.02719 0.0 
3.97233 4.04194 0.0 
3.98573 3.91699 0.0 
4.72787 4.04307 0.0 
4.29863 3.96819 0.0 
4.20876 3.92492 0.0 
3.92251 4.00785 0.0 
4.06759 3.96334 0.0 
4.30929 4.04286 0.0 
4.0052 4.01095 0.0 
5.15491 3.95658 0.0 
4.038 4.02989 0.0 
4.16431 3.95433 0.0 
4.94727 4.01036 0.0 
4.01234 4.02852 0.0 
4.99068 4.00846 0.0 
3.94564 3.99975 0.0 
3.97323 4.08385 0.0 
10.1584 2.49319 0.0 
4.00612 4.04547 0.0 
5.0401 4.02083 0.0 
4.98371 4.01321 0.0 
4.27571 4.05016 0.0 
0.293813 2.30474 0.0 
4.98019 3.997 0.0 
4.09374 3.85314 0.0 
11.7013 4.10211 0.0 
12.7254 2.64904 0.0 
9.3283 1.96676 0.0 
4.36888 4.08399 0.0 
4.1384 3.95607 0.0 
4.08583 4.02136 0.0 
4.89715 4.1145 0.0 
5.2424 4.03071 0.0 
4.77504 4.05583 0.0 
4.05428 3.94079 0.0 
9.70989 7.75915 0.0 
5.8176 3.84856 0.0 
4.02341 4.03456 0.0 
5.01259 4.00155 0.0 
4.52724 7.41561 0.0 
5.05919 4.01855 0.0 
4.64871 4.09227 0.0 
4.96482 4.00861 0.0 
4.22714 3.92146 0.0 
3.92289 3.95232 0.0 
4.74271 3.98666 0.0 
4.18123 4.06329 0.0 
4.63857 4.05165 0.0 
4.75619 3.98705 0.0 
4.25731 4.08266 0.0 
4.06103 3.9941 0.0 
6.69489 6.95742 0.0 
1.24078 0.550265 0.0 
4.74822 3.98758 0.0 
13.8157 6.13911 0.0 
2.38032 0.204862 0.0 
4.23309 3.95089 0.0 
9.1005 7.43296 0.0 
7.9018 7.80757 0.0 
4.26148 3.94171 0.0 
4.09219 4.04519 0.0 
4.01517 4.03055 0.0 
4.05175 3.95375 0.0 
3.99882 3.99972 0.0 
4.83193 4.0291 0.0 
4.99179 4.00387 0.0 
5.1555 4.17357 0.0 
4.32397 4.07264 0.0 
3.99908 3.98836 0.0 
4.59919 4.06713 0.0 
4.12151 3.94609 0.0 
4.06365 4.0402 0.0 
4.69483 3.98495 0.0 
8.82764 7.39799 0.0 
4.30761 4.07102 0.0 
1.65747 3.87733 0.0 
4.97222 4.02124 0.0 
4.12765 3.95773 0.0 
9.82031 4.81054 0.0 
6.25452 4.08467 0.0 
3.98196 3.98783 0.0 
4.2163 3.94824 0.0 
2.7796 2.2862 0.0 
4.14099 3.97155 0.0 
4.02169 4.00411 0.0 
4.56136 1.56993 0.0 
5.1327 4.04445 0.0 
4.27105 3.96723 0.0 
4.05308 3.97209 0.0 
4.2574 4.07607 0.0 
4.47779 4.09651 0.0 
4.61857 3.98053 0.0 
5.01331 3.98969 0.0 
3.91284 4.09524 0.0 
3.9901 3.98452 0.0 
4.12408 3.94161 0.0 
4.58561 4.05753 0.0 
4.96822 3.99651 0.0 
4.97452 3.99682 0.0 
5.36754 1.46193 0.0 
4.08139 3.94144 0.0 
2.88795 2.91404 0.0 
4.03513 3.9876 0.0 
4.05441 3.97266 0.0 
4.14676 4.00148 0.0 
10.7485 5.34397 0.0 
12.8718 1.38827 0.0 
3.95829 3.91813 0.0 
4.9708 4.00141 0.0 
11.9172 2.40518 0.0 
4.32504 4.05592 0.0 
4.9749 3.97836 0.0 
4.59772 3.91409 0.0 
4.04955 3.95606 0.0 
4.8789 3.99374 0.0 
3.59386 3.60045 0.0 
13.0314 2.11245 0.0 
4.34897 3.97068 0.0 
4.14096 4.14641 0.0 
4.17983 4.0788 0.0 
4.04985 4.09228 0.0 
4.4069 4.07911 0.0 
4.2489 4.09629 0.0 
5.06347 3.99507 0.0 
4.67363 6.28874 0.0 
4.2295 4.0772 0.0 
4.30912 4.07777 0.0 
5.08198 4.04957 0.0 
5.02947 4.00625 0.0 
4.62059 4.08532 0.0 
4.01726 4.00142 0.0 
4.01874 3.97656 0.0 
4.07516 4.04194 0.0 
3.16601 3.27687 0.0 
1.50573 1.30828 0.0 
8.92291 8 0.0 
4.95127 3.99644 0.0 
5.06164 4.02608 0.0 
4.20396 4.03821 0.0 
3.99883 4.01382 0.0 
0.200425 3.57254 0.0 
4.08322 4.04403 0.0 
4.12434 4.06442 0.0 
4.83042 4.02841 0.0 
3.97236 3.97115 0.0 
4.01165 4.04753 0.0 
4.85625 4.02644 0.0 
11.186 5.0434 0.0 
4.20227 4.08039 0.0 
4.23985 4.08128 0.0 
4.87039 4.05396 0.0 
4.60087 4.05586 0.0 
4.05545 4.03481 0.0 
4.10203 3.95404 0.0 
3.99752 4.02893 0.0 
4.01884 3.99521 0.0 
4.26259 4.0847 0.0 
4.15582 4.07076 0.0 
12.9735 2.89798 0.0 
4.04162 4.00806 0.0 
4.1339 4.047 0.0 
7.34069 3.93402 0.0 
4.34889 4.1205 0.0 
4.01204 4.00974 0.0 
4.9921 3.96662 0.0 
8.03982 0.739812 0.0 
4.5171 4.6667 0.0 
4.08637 3.98671 0.0 
8.1554 7.24604 0.0 
4.10495 3.96896 0.0 
4.00432 3.99827 0.0 
4.52445 4.30944 0.0 
4.00131 3.99967 0.0 
3.96379 4.09203 0.0 
4.22135 3.95386 0.0 
4.00756 4.02287 0.0 
4.0911 3.98345 0.0 
4.14295 3.97632 0.0 
8.00607 4.36941 0.0 
3.92977 4.00134 0.0 
4.03581 4.22835 0.0 
11.5266 3.58487 0.0 
5.0218 3.98124 0.0 
4.67136 3.9835 0.0 
4.19507 4.0651 0.0 
4.0766 3.95386 0.0 
3.96814 3.94854 0.0 
5.10311 4.0306 0.0 
4.56013 3.97772 0.0 
8.76096 4.31439 0.0 
3.99135 4.00607 0.0 
4.10808 3.96074 0.0 
4.08645 3.96932 0.0 
4.04315 3.97489 0.0 
3.98027 4.05285 0.0 
5.06777 4.12388 0.0 
4.39092 4.05736 0.0 
4.07632 3.97116 0.0 
4.73231 3.98564 0.0 
5.39646 2.58735 0.0 
4.22898 4.08419 0.0 
4.04077 3.99338 0.0 
4.13598 3.9905 0.0 
4.11439 3.96796 0.0 
4.10231 3.92419 0.0 
4.63925 4.03951 0.0 
13.1066 7.48347 0.0 
4.38318 4.05579 0.0 
3.93347 4.08284 0.0 
13.4588 2.01213 0.0 
11.8467 7.80818 0.0 
9.9693 3.67106 0.0 
7.49814 1.66258 0.0 
2.84695 6.56376 0.0 
4.14584 4.05809 0.0 
5.18793 4.05304 0.0 
4.02433 3.97472 0.0 
4.1472 3.96624 0.0 
3.8359 4.02453 0.0 
4.2792 4.0666 0.0 
3.98111 4.00805 0.0 
4.37247 3.94474 0.0 
4.03664 4.0119 0.0 
4.00958 3.9879 0.0 
3.99352 3.97666 0.0 
4.17387 3.91323 0.0 
3.93472 3.98311 0.0 
4.67002 3.84867 0.0 
9.84812 2.57901 0.0 
3.98468 3.9804 0.0 
4.27492 4.05293 0.0 
4.11848 4.05832 0.0 
[...]
<PointData>
  <DataArray type = "Float64" Name="Vitesse" NumberOfComponents="3" format="ascii">
1 0 0.0 
1.0013 0 0.0 
0.999547 0 0.0 
1 0 0.0 
1.03015 0.172203 0.0 
1.84996e-05 1.99481e-06 0.0 
0.999522 -0.000122139 0.0 
0.531222 0.0145163 0.0 
0.622203 -0.0815049 0.0 
-5.08222e-95 1.20008e-96 0.0 
0.155914 0.00287088 0.0 
0.00861346 0.000774583 0.0 
0.809292 -0.12201 0.0 
1.01775 0.00612897 0.0 
0.646377 -0.0582634 0.0 
2.941e-166 -4.38016e-166 0.0 
0.0384874 -0.00139082 0.0 
1.00788 0.000498736 0.0 
1.01653e-15 -1.51225e-16 0.0 
0.0513299 -0.00697052 0.0 
0 0 0.0 
0.0993912 -0.00112011 0.0 
0.948255 0.0972449 0.0 
0 0 0.0 
0.0132707 0.000946886 0.0 
1.00817 0.00130074 0.0 
0.0126074 0.000373606 0.0 
0.881503 0.244995 0.0 
1.00724 -0.000762646 0.0 
0.208219 0.0158099 0.0 
0.041797 -0.00620365 0.0 
0 0 0.0 
1 0 0.0 
0.999155 0.000136692 0.0 
0.00973934 -0.000884243 0.0 
0 0 0.0 
0.107011 -0.00150373 0.0 
0 0 0.0 
0 0 0.0 
0 0 0.0 
0.152204 -0.0173959 0.0 
0.0407006 -0.0135834 0.0 
0.378831 0.0167006 0.0 
0.0025595 -0.000426809 0.0 
1.05107 0.016831 0.0 
3.31873e-162 -3.80296e-163 0.0 
0.763765 -0.0384982 0.0 
0 0 0.0 
-6.34046e-74 -4.68241e-75 0.0 
1.00974 -0.00126318 0.0 
0.568692 0.0727692 0.0 
0.125159 0.00521818 0.0 
2.44171e-166 8.05146e-168 0.0 
0.756232 -0.0414921 0.0 
1.00132 -0.00740858 0.0 
0 0 0.0 
0.835563 0.359604 0.0 
0.988911 0.0124882 0.0 
2.29213e-07 2.76425e-08 0.0 
-7.58614e-34 -1.74094e-34 0.0 
2.97681e-24 6.25106e-25 0.0 
1.00765 0.00204671 0.0 
0.223285 0.0253033 0.0 
0.0113909 -0.000486247 0.0 
0.0945528 -0.146466 0.0 
1.40814e-26 -4.90706e-28 0.0 
0.115057 -0.0088204 0.0 
0 0 0.0 
2.55036e-137 -1.54351e-138 0.0 
0.997542 0.00652808 0.0 
1.03946 -0.123043 0.0 
3.37394e-10 -3.6358e-11 0.0 
0.868225 0.349656 0.0 
1.09395 -0.0686814 0.0 
0 0 0.0 
0.678539 0.0255712 0.0 
0.864636 0.0970777 0.0 
0.0670978 -0.01022 0.0 
0.396145 -0.0165733 0.0 
3.92377e-112 -1.09229e-112 0.0 
0.0247332 -0.00487337 0.0 
1.00249 -0.000480803 0.0 
0.253683 0.0707859 0.0 
0.999211 -5.35204e-05 0.0 
0 0 0.0 
1.0126 -0.194123 0.0 
0.671359 -0.0819037 0.0 
0.144344 -0.0347646 0.0 
1.01629 -0.0016973 0.0 
0.000252787 -9.61384e-06 0.0 
1.01464 -0.00113471 0.0 
0.747531 -0.384066 0.0 
0.870347 0.0505892 0.0 
0.018225 -0.0052898 0.0 
0.314824 -0.206296 0.0 
0.924431 -0.0325453 0.0 
1.00195 -0.00229116 0.0 
0.198743 -0.293849 0.0 
0.0618176 -0.00937864 0.0 
0.0527515 -0.00714792 0.0 
0 0 0.0 
0.401399 -0.00685639 0.0 
0.0996482 -0.00979138 0.0 
0.541646 0.166921 0.0 
0.641337 -0.00262537 0.0 
0.999032 0.00044968 0.0 
3.23156e-05 2.03654e-07 0.0 
-3.58042e-23 -2.68354e-24 0.0 
0.241406 0.00925299 0.0 
0.27435 0.0110294 0.0 
0.794725 -0.130768 0.0 
0.00629102 0.000378109 0.0 
0.117728 -0.0117768 0.0 
0 0 0.0 
0.355889 0.0039873 0.0 
0.739719 -0.0498919 0.0 
1.00682 0.000633269 0.0 
0.348048 0.00397733 0.0 
0.00792034 0.000993704 0.0 
1.01235 0.00655637 0.0 
1.00721 0.00135323 0.0 
1.00392e-144 3.31038e-146 0.0 
0.991381 0.0113034 0.0 
0.347865 0.0059378 0.0 
0.998853 0.000351764 0.0 
1.00772 0 0.0 
0.718606 0.145451 0.0 
0.60942 0.162354 0.0 
0.434664 0.10854 0.0 
0.976563 -0.01447 0.0 
1.00133 0.00609848 0.0 
1.00617 0 0.0 
0.197569 -0.0262883 0.0 
0.259957 0.011086 0.0 
0.553423 0.282467 0.0 
0.101937 0.0216572 0.0 
0.852506 0.168093 0.0 
0.96375 -0.04262 0.0 
-1.32174e-37 -1.13735e-38 0.0 
0.00104546 -9.30279e-05 0.0 
1.00832 0 0.0 
0.00154186 -0.000236899 0.0 
0.882784 0.144275 0.0 
0.742557 -0.0648549 0.0 
0.413548 0.00299377 0.0 
1.40058e-25 7.06287e-27 0.0 
0 0 0.0 
0.977551 -0.0162533 0.0 
0.452034 0.0118518 0.0 
0.58039 0.0819955 0.0 
0.92464 -0.148483 0.0 
0.999481 0.00248498 0.0 
0.00435148 -0.000687879 0.0 
0.192246 -0.0201632 0.0 
0.999738 0.00017269 0.0 
1.00642 0.000271887 0.0 
1.00783 -0.00953822 0.0 
0.732316 0.332633 0.0 
0.0937933 -0.0107255 0.0 
3.76804e-06 5.50865e-07 0.0 
0.558619 0.144127 0.0 
1.06188 -0.192032 0.0 
1.07201 0.20242 0.0 
2.09121e-05 4.03919e-06 0.0 
0 0 0.0 
0.414538 0.00698068 0.0 
0.017132 0.000263918 0.0 
0.00364917 -0.000532734 0.0 
0.715556 0.359495 0.0 
0 0 0.0 
0.569438 -0.0450978 0.0 
0.145668 -0.0208952 0.0 
0.651164 0.0601097 0.0 
0.335628 0.176587 0.0 
0.586689 -0.0211685 0.0 
0.80308 0.165339 0.0 
1 0 0.0 
0.875071 0.115733 0.0 
0.238872 0.0319085 0.0 
0.141345 -0.0304294 0.0 
0.0869477 0.00447084 0.0 
0.875484 -0.0230755 0.0 
1.12183e-11 -9.35599e-13 0.0 
0.3687 0.027247 0.0 
0.0196652 -0.00528208 0.0 
1.00631 0.0010295 0.0 
1.06073 -0.227719 0.0 
1.00324 -0.00192357 0.0 
1.0923 0.184969 0.0 
0.193222 0.00860706 0.0 
0.00694821 -0.000327921 0.0 
0.00391599 -0.000823555 0.0 
1.0187 -0.0783558 0.0 
6.93285e-125 -2.72457e-125 0.0 
1.2217e-146 4.02852e-148 0.0 
0.753289 -0.101735 0.0 
1.05427 -0.134417 0.0 
0.8243 0.225235 0.0 
0.707098 0.0967351 0.0 
0.828835 -0.29349 0.0 
0 0 0.0 
0 0 0.0 
0.442776 0.0514071 0.0 
0.897766 -0.212444 0.0 
0.396088 -0.0106327 0.0 
0.283717 0.0469113 0.0 
0.0119966 0.000355401 0.0 
0.370443 0.0476699 0.0 
0 0 0.0 
1.00297 0.00133669 0.0 
0.797882 -0.105732 0.0 
1.00752 0.00120572 0.0 
0.743047 -0.134689 0.0 
1.00087 0.000959438 0.0 
0.835237 -0.116111 0.0 
0.446105 0.0406599 0.0 
0.163319 -0.00047539 0.0 
0 0 0.0 
0.720338 -0.112053 0.0 
0.920015 -0.0438341 0.0 
0.775644 -0.0905698 0.0 
0 0 0.0 
4.05913e-73 6.95376e-74 0.0 
0.915435 -0.131095 0.0 
-1.49836e-55 -1.13757e-55 0.0 
1.00082 0.000963075 0.0 
1.01045 -0.00620054 0.0 
0.777427 0.263462 0.0 
0.0440467 -0.000410732 0.0 
0.506841 0.0485248 0.0 
0.0631673 -0.0176298 0.0 
0.311531 0.104198 0.0 
0.661978 0.155893 0.0 
0.0435419 -0.00938398 0.0 
-6.35341e-303 -2.32359e-304 0.0 
0.994092 0.00508303 0.0 
1.06832 0.191514 0.0 
1.10795 0.168509 0.0 
0.724353 0.12213 0.0 
0.308264 0.00013919 0.0 
0.298218 -0.0472814 0.0 
0.673894 0.100163 0.0 
0.7219 0.156747 0.0 
0.91955 -0.194861 0.0 
0.00540252 -0.000591714 0.0 
0.0115253 0.000169573 0.0 
0.933985 -0.0580835 0.0 
0.793234 -0.0100103 0.0 
0.517318 -0.0907074 0.0 
0 0 0.0 
7.0975e-14 7.42399e-14 0.0 
0.448754 0.0287561 0.0 
-2.71536e-114 -6.46621e-115 0.0 
0.390688 -0.0191373 0.0 
6.14686e-05 -8.98774e-06 0.0 
0.582567 0.344029 0.0 
0.0146097 -0.0037812 0.0 
0.736741 -0.0388037 0.0 
0.845547 0.17273 0.0 
1.00889 0.00425788 0.0 
0.761872 0.328282 0.0 
0.0776423 -0.0140581 0.0 
0.0230862 -0.00472033 0.0 
0 0 0.0 
0.999995 -0.000270464 0.0 
0.0116736 0.000704679 0.0 
1.05173 -0.13218 0.0 
0.974508 -0.00150799 0.0 
1.00001 0.00233824 0.0 
1.00803 0.00188533 0.0 
0.328457 0.00401806 0.0 
0.405729 -0.0276679 0.0 
0 0 0.0 
0.778848 -0.0457329 0.0 
0.248076 -0.0122918 0.0 
0.135918 -0.0133237 0.0 
1.05472 -0.249474 0.0 
1.00481 -0.000466336 0.0 
0.974395 0.0131165 0.0 
0.611287 0.306687 0.0 
0.0371784 0.000480711 0.0 
1.00842 0.00115643 0.0 
0.0872844 -0.00943932 0.0 
0.478263 -0.0248946 0.0 
0.00294061 -0.000573582 0.0 
0.946795 -0.053133 0.0 
0.843504 -0.0938697 0.0 
5.90251e-07 2.66324e-08 0.0 
0.111649 0.0113665 0.0 
6.27976e-23 -2.15276e-24 0.0 
0.00459074 0.000129228 0.0 
0.464659 0.0362249 0.0 
0 0 0.0 
1.00967 -0.000873938 0.0 
1.00049 -0.000460298 0.0 
4.64337e-14 3.40171e-15 0.0 
0.999164 -0.000125685 0.0 
1.00199 -0.000369303 0.0 
0.377357 -0.00667045 0.0 
1.00605 -0.00103596 0.0 
1.00786 -0.000236631 0.0 
0.549652 -0.01056 0.0 
-1.81855e-23 -4.79562e-24 0.0 
0.603731 0.337138 0.0 
0.964247 -0.236747 0.0 
0.0491319 -0.1175 0.0 
0.00286644 -0.000290732 0.0 
0.00376197 -0.000795318 0.0 
1.0088 -0.0427782 0.0 
0.0939597 0.00356989 0.0 
0.479141 -0.445272 0.0 
0.123904 -0.00908741 0.0 
0.771089 -0.0831431 0.0 
0.0835323 0.0200912 0.0 
-2.28109e-31 -2.22277e-32 0.0 
1.00653 -0.00103504 0.0 
0.0649917 0.00231425 0.0 
0.998233 0.000225606 0.0 
0.0443945 -0.00693718 0.0 
0.384624 -0.0299224 0.0 
1.01069 -0.00783276 0.0 
0.738823 -0.0109031 0.0 
0.590323 -0.227381 0.0 
0.45981 -0.0132677 0.0 
1.00112 -0.00548502 0.0 
0 0 0.0 
0 0 0.0 
1.00902 -0.00339243 0.0 
0.256381 -0.0228002 0.0 
0.0182464 0.000804411 0.0 
0.221303 -0.0459139 0.0 
0.279594 0.0196811 0.0 
0.526032 -0.0078733 0.0 
0.00511933 0.000598952 0.0 
0.105683 0.0189711 0.0 
0.873799 0.0873088 0.0 
0.594501 -0.345456 0.0 
0.868243 -0.097482 0.0 
0.00510153 -0.000177113 0.0 
0.0102904 0.000495611 0.0 
0.0103644 0.00083282 0.0 
1.00996 -0.00112219 0.0 
1.02193 -0.18477 0.0 
0.997976 -0.0074385 0.0 
0 0 0.0 
0.173456 -0.0287636 0.0 
-1.50231e-252 -4.13803e-254 0.0 
0.997633 -0.00955447 0.0 
1.00174 0.00132858 0.0 
0.891725 -0.154971 0.0 
-2.7115e-35 -2.36374e-36 0.0 
1.00209 0.00395677 0.0 
0 0 0.0 
0.187519 0.0112976 0.0 
0.792008 0.010828 0.0 
0.933967 -0.234521 0.0 
2.41791e-16 1.52229e-17 0.0 
0.981558 -0.025402 0.0 
1.00124 0.00168745 0.0 
7.07287e-17 6.12413e-18 0.0 
1.07549 0.178013 0.0 
0.638362 0.0892794 0.0 
0.97022 0.267673 0.0 
0.215164 -0.00223248 0.0 
0.810979 0.078571 0.0 
0.121511 0.0112361 0.0 
1.01234 0.00357156 0.0 
0.388899 0.03468 0.0 
0.236733 0.00910465 0.0 
0.260964 -0.0288695 0.0 
0.0531919 -0.00209344 0.0 
0.373245 -0.0204388 0.0 
0 0 0.0 
0.608354 -0.256955 0.0 
-9.3509e-33 -3.02645e-33 0.0 
0.993887 -0.0110895 0.0 
1.00055 -0.00130486 0.0 
1.00623 0 0.0 
0.0044229 0.000402066 0.0 
0.111264 -0.0151679 0.0 
0 0 0.0 
0.311754 0.266289 0.0 
0.999997 -2.96602e-05 0.0 
-1.58473e-26 -2.56905e-27 0.0 
0.516927 0.101843 0.0 
4.41201e-07 -5.5428e-08 0.0 
0.740984 -0.206573 0.0 
0.791102 0.342853 0.0 
0.00622463 -0.000627511 0.0 
0.998211 -0.00930948 0.0 
0.584319 0.0715574 0.0 
0.474071 0.0420461 0.0 
0.182325 -0.0180441 0.0 
0.0045074 -0.000222568 0.0 
4.44669e-120 1.45294e-120 0.0 
0.630314 -0.0742036 0.0 
0.608132 0.31621 0.0 
0 0 0.0 
0.50537 0.0381589 0.0 
0.519416 0.0818079 0.0 
1.00004 0.00161226 0.0 
0 0 0.0 
0 0 0.0 
0.770088 0.00527452 0.0 
0.990479 0.0518178 0.0 
0 0 0.0 
0.30898 0.02138 0.0 
1.008 0.000356324 0.0 
1.0457 0.0195283 0.0 
0 0 0.0 
1.00758 -0.00104102 0.0 
0.0505489 -0.00552191 0.0 
0 0 0.0 
1.09124 0.0201592 0.0 
5.35012e-179 -1.11671e-178 0.0 
0.858496 0.152948 0.0 
0.318432 -0.00565021 0.0 
0.47574 0.331297 0.0 
0 0 0.0 
0 0 0.0 
1.00897 -0.00505339 0.0 
0.778644 -0.0256599 0.0 
0.997923 0.12866 0.0 
1.01556 0.00838754 0.0 
0.181588 0.0238329 0.0 
1.03098e-05 1.00419e-06 0.0 
0.116789 0.0166582 0.0 
0.800974 -0.139963 0.0 
0.832579 -0.192056 0.0 
0.157206 -0.016176 0.0 
0.00627226 0.000834315 0.0 
1.00736 -0.00363481 0.0 
0.309186 0.021387 0.0 
0.354867 -0.0322499 0.0 
0.0969134 -0.00712305 0.0 
0.173362 -0.0479386 0.0 
0.759714 0.198229 0.0 
0.859142 -0.0508258 0.0 
4.46238e-116 -1.46724e-117 0.0 
0.0657983 -0.0112806 0.0 
0.00618128 0.000261228 0.0 
1.01524 0.000107572 0.0 
0.589295 0.0590081 0.0 
0 0 0.0 
0 0 0.0 
0.0636127 -0.00041092 0.0 
1.08615 -0.166291 0.0 
3.55838e-259 -1.61117e-260 0.0 
0.999722 -0.000251526 0.0 
1.38594e-148 4.57009e-150 0.0 
0.850258 0.10482 0.0 
1.00101 0.00130555 0.0 
1.0009 -0.000250977 0.0 
1.00925 0.00195771 0.0 
1.00883 0.000741719 0.0 
1.0036 0.00412364 0.0 
0.0952311 0.0155357 0.0 
0.345116 -0.0257713 0.0 
0.573641 -0.209849 0.0 
0.063252 -0.00443768 0.0 
0.88903 0.00686969 0.0 
3.35234e-11 2.31133e-12 0.0 
0.504577 0.0103079 0.0 
0.428094 0.00423205 0.0 
0 0 0.0 
0.0686836 -0.0433444 0.0 
0.707901 -0.377155 0.0 
1.07378 -0.09823 0.0 
0.783163 -0.0698361 0.0 
1.0559 0.00339613 0.0 
1.00959 0.00322473 0.0 
0.656579 -0.285169 0.0 
0 0 0.0 
0.31958 0.0632266 0.0 
1.008 0.0047319 0.0 
0.397396 0.31004 0.0 
0.140913 -0.00995246 0.0 
0.47033 0.0041756 0.0 
0.998951 -0.00162866 0.0 
0 0 0.0 
0.715403 -0.266642 0.0 
1.00062 0.00160969 0.0 
1.00478 -0.266529 0.0 
1.00992 -0.0011313 0.0 
1.00853 0.00673678 0.0 
0.0225321 -0.00211589 0.0 
3.48693e-164 -1.23122e-164 0.0 
0.864354 0.0666356 0.0 
1.73209e-30 6.36815e-32 0.0 
0.716641 0.337538 0.0 
0.524928 -0.0568196 0.0 
0 0 0.0 
0.648175 0.256977 0.0 
0.712105 0.271538 0.0 
0.0419293 0.00147741 0.0 
0.0114437 0.000319521 0.0 
0.993262 -0.00671523 0.0 
3.10847e-26 1.54899e-27 0.0 
0 0 0.0 
0 0 0.0 
0.7676 0.120652 0.0 
1.56983e-08 2.53383e-08 0.0 
0.0576812 -0.00262471 0.0 
0.102164 0.0607397 0.0 
0.875527 -0.0565971 0.0 
0.00915789 0.000433349 0.0 
0.00578389 -0.000447767 0.0 
0.455507 0.0252698 0.0 
0.93364 0.0906504 0.0 
0.677128 0.242156 0.0 
1.00112 0 0.0 
0.197025 -0.00841011 0.0 
0.70929 0.37583 0.0 
-4.54665e-108 -1.08446e-108 0.0 
-7.67756e-122 -1.82026e-122 0.0 
0.00845929 0.000701225 0.0 
0 0 0.0 
0.00579258 0.000243192 0.0 
0.728353 0.308706 0.0 
1.00035 -0.000261975 0.0 
0.905244 0.0261245 0.0 
0.15207 0.0156912 0.0 
0.34556 -0.0239031 0.0 
0.329751 -0.324436 0.0 
0.607902 -0.291104 0.0 
0.172033 0.102688 0.0 
1.02003 -0.251923 0.0 
0.00334201 -0.000161672 0.0 
1.00717 -0.00404124 0.0 
0 0 0.0 
0.23607 0.00518452 0.0 
1.00186 -0.00271267 0.0 
0.553795 -0.0632197 0.0 
0.536523 0.0989198 0.0 
0.253241 0.00904704 0.0 
0.762534 0.305886 0.0 
0.048821 -0.00234381 0.0 
0.063992 0.0143372 0.0 
2.38481e-269 -1.0798e-270 0.0 
0.424879 -0.123171 0.0 
1.10067e-18 -3.24124e-20 0.0 
0 0 0.0 
0.578819 -0.432246 0.0 
0.132684 0.00829505 0.0 
0.000104358 7.23745e-06 0.0 
1.00031 0 0.0 
0.449076 -0.0999323 0.0 
0.541426 -0.0334464 0.0 
0.0365903 0.000956371 0.0 
4.18282e-149 1.37927e-150 0.0 
1.00004 -0.000397943 0.0 
0.0446932 -0.00632731 0.0 
0.722239 0.0545108 0.0 
0.494666 0.107888 0.0 
1.00705 -0.00729587 0.0 
0.066419 -0.00143136 0.0 
0.781542 0.36717 0.0 
0.835242 0.138557 0.0 
1.0548 0.0100054 0.0 
2.58542e-15 6.85152e-16 0.0 
1.0078 -0.00346475 0.0 
0.000297823 -2.54111e-05 0.0 
0 0 0.0 
0.00202166 0.000172817 0.0 
0.471447 -0.0833545 0.0 
1.45261e-09 -1.0931e-10 0.0 
1.01005 -0.00625882 0.0 
0.459549 -0.0419958 0.0 
1 0 0.0 
1.00814 -0.00380239 0.0 
0.759642 0.373027 0.0 
0 0 0.0 
0 0 0.0 
0.0719308 -0.0609102 0.0 
0.996587 0.000112447 0.0 
-1.06708e-157 7.33928e-159 0.0 
1.00924 0 0.0 
0.749103 0.277776 0.0 
0 0 0.0 
0.999355 -0.000139949 0.0 
1.00343 -0.00125097 0.0 
0.98583 0.00275728 0.0 
0.150825 0.0179465 0.0 
0 0 0.0 
1.00712 0 0.0 
1.00483 0.00463915 0.0 
0.789363 0.319446 0.0 
0.481893 0.0711866 0.0 
0.0136164 0.000990196 0.0 
0.999818 0.000769193 0.0 
0.490205 -0.0484524 0.0 
0.76961 0.365431 0.0 
0.747404 0.0638903 0.0 
-1.58571e-45 -2.13468e-46 0.0 
1.00087 0.00237559 0.0 
0.863803 0.354651 0.0 
0.490351 -0.170933 0.0 
0.815403 0.356937 0.0 
0.294803 0.00253139 0.0 
1.01042 -0.00368641 0.0 
0.943412 -0.335276 0.0 
0.572706 -0.0602677 0.0 
0.745369 -0.0900248 0.0 
0.805284 -0.0815624 0.0 
0.0645549 0.002177 0.0 
1.00122 0.000374026 0.0 
0.140929 -0.0188199 0.0 
0.32441 0.0446438 0.0 
1.05015 0.102504 0.0 
0.0103262 0.000732069 0.0 
0 0 0.0 
0.461152 -0.191412 0.0 
0.0293447 -0.004962 0.0 
1.06612 -0.0366641 0.0 
1.01256 -0.00253241 0.0 
0.755684 0.062744 0.0 
0.0459677 -0.0097712 0.0 
0.0757757 0.0258863 0.0 
1.008 0.000755341 0.0 
0.411878 -0.00471527 0.0 
0.810187 0.127486 0.0 
-1.02082e-87 7.95637e-89 0.0 
1.00879 0.00206748 0.0 
0.229705 -0.00319285 0.0 
0.453794 -0.0472162 0.0 
0.0242339 -0.00076003 0.0 
1.10142 -0.00808531 0.0 
0.296137 0.00872744 0.0 
0.0156467 0.00041265 0.0 
0.780338 0.136793 0.0 
0.987054 -0.0121437 0.0 
0.00566524 -0.000686465 0.0 
0.452922 0.337789 0.0 
0.188388 0.0394888 0.0 
0.799776 0.0737702 0.0 
1.0028 0 0.0 
0.0771646 -0.00646001 0.0 
0.695814 -0.447678 0.0 
0.767799 0.0879504 0.0 
1.00962 0.000687494 0.0 
0.245552 -0.292325 0.0 
1.00816 0.00265745 0.0 
-1.56667e-25 -8.82032e-27 0.0 
1.00099 0.0020333 0.0 
0.404969 -0.00287526 0.0 
0.771388 -0.289485 0.0 
1.69944e-69 2.91133e-70 0.0 
1.01215 -0.0119525 0.0 
1.00628 -0.000530967 0.0 
0.00417405 0.000466119 0.0 
1.00523 0.00234431 0.0 
0.172272 0.0129206 0.0 
0.0149441 -0.00158693 0.0 
0.0126127 -0.000299941 0.0 
0.86018 -0.143082 0.0 
0.950995 -0.288747 0.0 
1.00821 0.000936296 0.0 
0.591723 0.0815154 0.0 
0.0430667 -0.0166829 0.0 
0.853813 0.215966 0.0 
0.991591 -0.000732666 0.0 
0.325411 -0.0212093 0.0 
0.293619 0.121205 0.0 
1.00791 -0.0052099 0.0 
0.705235 -0.0867866 0.0 
0.208144 0.129293 0.0 
0 0 0.0 
0.229527 0.0174126 0.0 
0.999338 -0.00381292 0.0 
1.00812 8.98872e-05 0.0 
0.862055 0.258719 0.0 
0 0 0.0 
6.65014e-05 2.88217e-06 0.0 
0.00494813 0.000721504 0.0 
-3.73578e-84 -7.07116e-86 0.0 
0.0282521 0.00692745 0.0 
0.020157 -0.00331089 0.0 
0 0 0.0 
0.214905 0.0331255 0.0 
0.892247 -0.300071 0.0 
0.837619 -0.0222509 0.0 
0.966357 0.305804 0.0 
0.250226 -0.0213195 0.0 
0.0770574 -0.0355564 0.0 
0.018883 0.00168409 0.0 
0 0 0.0 
1.01338 -0.0063079 0.0 
0.00743635 2.60006e-05 0.0 
1.01189 -0.0123294 0.0 
0 0 0.0 
1.0037 -0.00241748 0.0 
0.998631 -0.000470465 0.0 
0 0 0.0 
0 0 0.0 
0.0600931 0.000326718 0.0 
1.06063 0.219799 0.0 
1.00048 0.00517977 0.0 
1.0187 -0.301751 0.0 
0.313526 -0.0135777 0.0 
0.940903 -0.100851 0.0 
6.99825e-07 5.09689e-07 0.0 
0.358606 -0.00394283 0.0 
1.0119 -0.00305554 0.0 
1.01223 -0.294486 0.0 
0.752952 0.220135 0.0 
0.324629 0.168178 0.0 
1.00233 0.00245204 0.0 
0.316576 0.0753037 0.0 
0.886109 0.308069 0.0 
0.0734035 -0.000160736 0.0 
0.882382 -0.00716978 0.0 
0.999515 -0.000229064 0.0 
1.03492 -0.0535517 0.0 
1.00622 -0.000306668 0.0 
0.0771912 0.0630531 0.0 
0.0927729 0.00149408 0.0 
0 0 0.0 
0.787902 0.149247 0.0 
0.162052 -0.00987129 0.0 
0.00204095 -0.000375342 0.0 
1.0018 -0.00129579 0.0 
1.00918 0.256221 0.0 
0.726355 -0.065477 0.0 
0.00519881 -0.000417425 0.0 
-2.38907e-24 -1.61861e-25 0.0 
1.0084 0.00613191 0.0 
1.05613 0.0955844 0.0 
0 0 0.0 
0.000324797 2.90043e-05 0.0 
1.17337e-07 1.22735e-07 0.0 
0.608335 -0.463194 0.0 
1.01978 0.142709 0.0 
-7.3002e-226 -2.01081e-227 0.0 
0.72748 0.191812 0.0 
0.0936701 0.00146623 0.0 
0.678692 0.19987 0.0 
0.998901 0.000850614 0.0 
1.00031 0.0019214 0.0 
1.00109 -0.00121221 0.0 
1.00185 0.00161359 0.0 
0.0658345 0.0189712 0.0 
1.00156 0.0131892 0.0 
1.07137 -0.0356733 0.0 
1.00832 -0.00105736 0.0 
0.253956 -0.00764227 0.0 
1.03656 -0.272924 0.0 
0.970747 -0.217965 0.0 
0.0225684 0.00447233 0.0 
0 0 0.0 
-1.87495e-52 2.07708e-53 0.0 
0.0361813 -0.0153568 0.0 
0.099942 -0.0149271 0.0 
1.00315 0 0.0 
0.445544 -0.0104571 0.0 
1.01149 0.00474685 0.0 
1.06378 0.222812 0.0 
1.00564 0.00078863 0.0 
0.279004 0.0242025 0.0 
1.00701 0.000834293 0.0 
1.00796 -0.00142799 0.0 
0.0724463 -0.156422 0.0 
0.0912806 -0.0103697 0.0 
1.00813 -0.00343915 0.0 
0.585052 -0.0713535 0.0 
1.00816 0 0.0 
1.00005 -0.000596803 0.0 
1.02092 0.0131697 0.0 
0.740465 0.031979 0.0 
1.0076 -0.000633247 0.0 
0 0 0.0 
0.156502 0.00752559 0.0 
0.114708 -0.0124207 0.0 
0.787359 0.0266934 0.0 
0 0 0.0 
0.832678 -0.216349 0.0 
1.00186 0 0.0 
1.00428 0.000383326 0.0 
1.00164 0 0.0 
1.09298 -0.100305 0.0 
0.942177 -0.360167 0.0 
0 0 0.0 
0.050138 -0.00702564 0.0 
1.00847 -0.00348076 0.0 
0.0485212 -0.00346682 0.0 
0 0 0.0 
0 0 0.0 
0.363767 0.00509163 0.0 
1.00864 0.0011384 0.0 
0.173701 -0.0065389 0.0 
1.00848 -0.00364227 0.0 
1.00678 0 0.0 
0.0872569 -0.0091571 0.0 
0.651392 0.277147 0.0 
0.107574 0.00611747 0.0 
0.933019 0.0452864 0.0 
0.920332 -0.304809 0.0 
1.00003 0.000515549 0.0 
0.58957 0.228235 0.0 
0.954919 0.00701396 0.0 
0.2102 9.03555e-06 0.0 
0.951862 0.284524 0.0 
0.995292 -0.0010099 0.0 
4.22247e-166 -4.40068e-167 0.0 
0.818926 -0.244445 0.0 
0.999603 -0.000183079 0.0 
0.161373 0.168742 0.0 
0 0 0.0 
0 0 0.0 
0.110261 0.049185 0.0 
0.127474 0.000182933 0.0 
0.0331771 -0.0150396 0.0 
1.01689 -0.111142 0.0 
5.2069e-25 2.84856e-26 0.0 
0.801055 -0.35165 0.0 
0.169596 0.00589059 0.0 
0.839294 0.0155645 0.0 
0 0 0.0 
1.00842 -5.87487e-06 0.0 
0 0 0.0 
0.939273 0.00467575 0.0 
1.00842 0.000844822 0.0 
0.918182 0.239269 0.0 
0.646014 -0.00845586 0.0 
1.08398 -0.0354265 0.0 
1.0039 0.000597711 0.0 
0.961065 -0.0074333 0.0 
1.00644 0.152799 0.0 
0.222277 -0.0618627 0.0 
0.0331237 -0.0117428 0.0 
0.74332 -0.430061 0.0 
0.288078 0.0454546 0.0 
0.24204 -0.00789771 0.0 
0.805974 0.198108 0.0 
0 0 0.0 
0.977338 0.293953 0.0 
0 0 0.0 
1.00784 0.000358215 0.0 
0.279123 -0.0292914 0.0 
1.00051 0.000587772 0.0 
0.393943 -0.292932 0.0 
0.682103 -0.107191 0.0 
-5.36858e-77 -9.53745e-78 0.0 
1.00927 0.00194913 0.0 
0 0 0.0 
0.880522 -0.225495 0.0 
1.00823 0.00012734 0.0 
0.0221056 -0.0012372 0.0 
1.00938 -0.000519966 0.0 