<VTKFile type="UnstructuredGrid" version="0.1" byte_order="LittleEndian">
  <UnstructuredGrid>
    <Piece NumberOfPoints="12570" NumberOfCells="24984">
      <Points>
        <DataArray type = "Float64" NumberOfComponents="3" format="ascii">
0 0 0.0 
14 0 0.0 
14 8 0.0 
0 8 0.0 
4.38439 3.94377 0.0 
12.8057 1.94595 0.0 
0.483697 5.24337 0.0 
3.96448 3.92683 0.0 
4.22181 4.06276 0.0 
4.1814 3.96678 0.0 
5.0055 3.9981 0.0 
4.53454 3.97602 0.0 
4.08596 3.93674 0.0 
5.09496 4.09434 0.0 
4.4023 3.95598 0.0 
4.13667 4.04945 0.0 
4.07627 3.96096 0.0 
4.05477 4.02613 0.0 
4.99091 4.00349 0.0 
8.29677 5.77683 0.0 
4.02606 4.03063 0.0 
3.98204 3.97395 0.0 
4.00922 3.99881 0.0 
4.02803 4.04844 0.0 
6.27489 0.239279 0.0 
4.01927 3.99345 0.0 
5.00025 4.00682 0.0 
4.02748 3.99765 0.0 
4.84218 4.09374 0.0 
4.01027 3.99982 0.0 
3.98196 3.98783 0.0 
5.00749 4.02107 0.0 
4.36023 4.05917 0.0 
4.02798 4.01078 0.0 
4.03416 4.05264 0.0 
4.12387 3.9193 0.0 
5.00166 3.98677 0.0 
4.00262 3.99406 0.0 
4.51643 4.06235 0.0 
13.4873 0.257635 0.0 
4.28025 3.72374 0.0 
5.26504 3.98108 0.0 
4.99975 3.99841 0.0 
4.57689 4.03051 0.0 
3.99967 4.0114 0.0 
4.79206 4.0553 0.0 
4.62278 3.95949 0.0 
4.48972 4.05494 0.0 
4.49502 3.97437 0.0 
14 6.11123 0.0 
3.91969 3.99687 0.0 
3.96293 3.99513 0.0 
4.03268 4.02147 0.0 
4.05624 4.00717 0.0 
4.02218 4.02155 0.0 
3.99922 3.99464 0.0 
4.01577 3.95866 0.0 
4.00356 4.03076 0.0 
4.55541 3.91424 0.0 
14 5.21618 0.0 
8.55881 8 0.0 
4.17105 3.96715 0.0 
6.54836 4.20004 0.0 
4.0378 4.00667 0.0 
3.9947 4.00336 0.0 
4.01308 4.00992 0.0 
4.38183 3.95813 0.0 
4.07343 4.06872 0.0 
4.27441 4.05318 0.0 
4.23725 3.95116 0.0 
7.06118 4.18359 0.0 
5.00128 3.99352 0.0 
4.74342 3.98606 0.0 
10.1848 6.24919 0.0 
13.5361 3.50022 0.0 
5.04845 4.04311 0.0 
4.46922 3.87899 0.0 
4.04457 4.03443 0.0 
7.59582 1.18535 0.0 
2.54851 4.35956 0.0 
4.17447 4.07538 0.0 
4.18654 3.96807 0.0 
3.80119 4.10884 0.0 
4.58669 3.9792 0.0 
10.1833 0.248119 0.0 
4.02875 4.04115 0.0 
5.6936 4.04652 0.0 
4.47662 4.03023 0.0 
3.7391 1.31631 0.0 
1.26284 5.53443 0.0 
3.99608 4.01533 0.0 
4.81129 3.98987 0.0 
4.00945 3.98868 0.0 
3.91267 2.38613 0.0 
5.1819 4.12653 0.0 
4.08089 4.04393 0.0 
4.18143 4.0524 0.0 
4.12124 3.98374 0.0 
4.01253 4.01754 0.0 
4.15544 3.92346 0.0 
4.44293 4.10308 0.0 
5.22297 3.93303 0.0 
4.90414 4.03646 0.0 
4.02244 4.02798 0.0 
4.81901 4.03129 0.0 
0 1.4212 0.0 
5.0905 2.15481 0.0 
3.99804 4.00956 0.0 
5.01331 3.98969 0.0 
4.5198 4.04444 0.0 
4.04021 3.98137 0.0 
4.12754 3.92728 0.0 
4.4292 3.97347 0.0 
4.79296 3.98918 0.0 
4.03555 4.04122 0.0 
4.12085 4.01228 0.0 
3.89722 4.12069 0.0 
4.73287 4.04202 0.0 
4.04637 4.0287 0.0 
4.48382 3.97481 0.0 
3.99252 4.00665 0.0 
4.00947 4.02943 0.0 
4.02839 3.85949 0.0 
5.03699 4.00707 0.0 
4.45406 3.97303 0.0 
4.24294 4.04149 0.0 
4.05784 3.98854 0.0 
3.84288 3.97339 0.0 
5.00555 4.00538 0.0 
4.10081 3.94382 0.0 
4.98235 4.01343 0.0 
4.02495 4.02882 0.0 
5.00368 4.02219 0.0 
10.7396 5.64099 0.0 
11.717 4.54424 0.0 
4.17928 4.0787 0.0 
9.48626 1.06994 0.0 
3.68674 1.80136 0.0 
3.9818 4.03131 0.0 
3.96476 4.03852 0.0 
1.55399 5.07439 0.0 
3.97233 4.04194 0.0 
3.99962 4.00016 0.0 
4.12593 4.30859 0.0 
4.00621 4.04562 0.0 
1.12644 3.34247 0.0 
4.49858 3.97447 0.0 
4.51864 3.97621 0.0 
5.03464 3.99029 0.0 
4.208 4.06442 0.0 
3.97366 3.97863 0.0 
5.72168 3.97443 0.0 
3.97272 3.97099 0.0 
5.17999 4.20915 0.0 
4.12889 4.06214 0.0 
5.06161 4.02615 0.0 
13.2653 2.91651 0.0 
4.00756 4.02287 0.0 
4.05142 4.01968 0.0 
4.23103 3.92099 0.0 
4.17857 3.91238 0.0 
4.58357 4.18397 0.0 
3.62193 3.35812 0.0 
3.99441 4.00023 0.0 
4.00359 4.03909 0.0 
4.94556 3.99537 0.0 
4.10608 4.02928 0.0 
4.50985 7.40044 0.0 
6.11096 3.94188 0.0 
4.15942 4.03647 0.0 
4.99901 3.99971 0.0 
5.05919 4.01855 0.0 
2.15923 7.15628 0.0 
4.08892 3.9567 0.0 
4.76691 3.97736 0.0 
4.16985 4.06062 0.0 
10.4898 1.15433 0.0 
7.18887 6.80823 0.0 
1.24078 0.550265 0.0 
9.10545 7.45594 0.0 
2.38032 0.204862 0.0 
4.01517 4.03055 0.0 
3.99882 3.99972 0.0 
4.25654 3.9675 0.0 
3.99908 3.98836 0.0 
4.02455 3.88899 0.0 
4.00223 3.92739 0.0 
4.12652 4.08916 0.0 
4.1938 4.04426 0.0 
4.21507 3.9482 0.0 
4.32782 4.10155 0.0 
4.97222 4.02124 0.0 
0 1.15025 0.0 
4.8958 4.01177 0.0 
3.9887 3.90005 0.0 
4.09476 4.08011 0.0 
11.9473 3.59927 0.0 
5.1327 4.04445 0.0 
4.20604 4.06613 0.0 
5.00771 4.00059 0.0 
4.10016 3.95849 0.0 
3.99876 3.96428 0.0 
4.0046 3.99166 0.0 
3.9901 3.98452 0.0 
4.97439 3.96659 0.0 
4.01387 4.0056 0.0 
4.55135 4.07682 0.0 
4.05713 3.95425 0.0 
4.48799 4.06521 0.0 
4.49797 3.97655 0.0 
4.98758 4.00398 0.0 
4.67895 4.01774 0.0 
3.99899 4.01393 0.0 
4.0686 3.79132 0.0 
4.61875 4.05503 0.0 
13.2253 0 0.0 
4.51994 3.98173 0.0 
4.08098 3.97261 0.0 
9.50935 4.48832 0.0 
4.13746 3.9677 0.0 
5.08198 4.04957 0.0 
5.02947 4.00625 0.0 
4.37976 4.07528 0.0 
4.31046 4.09354 0.0 
4.02035 4.05208 0.0 
4.08711 3.98632 0.0 
3.26832 4.20049 0.0 
3.99309 4.00997 0.0 
4.00166 4.00853 0.0 
3.98048 4.05294 0.0 
4.01748 3.98491 0.0 
4.13386 4.04638 0.0 
3.98816 4.01224 0.0 
4.50982 3.96368 0.0 
0.848755 1.28674 0.0 
3.91623 4.75039 0.0 
3.99752 4.02893 0.0 
4.01884 3.99521 0.0 
4.01574 3.99897 0.0 
3.98628 3.99582 0.0 
4.09122 3.91786 0.0 
4.01754 3.97341 0.0 
5.57889 4.10824 0.0 
4.50117 3.96719 0.0 
4.07062 4.04245 0.0 
8.52848 7.37276 0.0 
9.55669 5.91713 0.0 
4.00912 3.99614 0.0 
3.9863 3.99851 0.0 
4.3171 4.12404 0.0 
4.31256 3.93795 0.0 
3.93549 3.94275 0.0 
4.77225 3.96575 0.0 
4.64775 4.01774 0.0 
5.10311 4.0306 0.0 
3.98294 3.96111 0.0 
4.01931 3.9815 0.0 
4.1142 3.99571 0.0 
3.99686 4.00472 0.0 
4.02296 4.05915 0.0 
4.18405 4.07138 0.0 
4.67029 4.12294 0.0 
4.10212 4.0244 0.0 
4.0258 4.07445 0.0 
4.3222 4.07411 0.0 
4.59639 4.06315 0.0 
7.04095 6.9955 0.0 
3.9961 4.02386 0.0 
5.00397 3.99911 0.0 
4.0488 4.03914 0.0 
5.18793 4.05304 0.0 
5.51379 7.4427 0.0 
3.98111 4.00805 0.0 
3.47089 5.22944 0.0 
3.99352 3.97666 0.0 
0.747562 5.69493 0.0 
4.09933 3.97006 0.0 
4.85213 4.0266 0.0 
5.01225 4.00853 0.0 
8.28094 0.596167 0.0 
3.98586 3.96653 0.0 
4.01707 3.9715 0.0 
11.3109 3.9311 0.0 
4.39912 4.17102 0.0 
0.845905 6.52685 0.0 
4.95139 4.00967 0.0 
4.02402 4.04636 0.0 
4.01882 3.97459 0.0 
4.10097 4.04971 0.0 
4.06133 4.06985 0.0 
5.04267 4.00787 0.0 
3.99417 4.04189 0.0 
7.6181 7.09785 0.0 
4.71441 7.15979 0.0 
3.99997 3.99241 0.0 
4.41092 4.08744 0.0 
4.78319 4.01066 0.0 
3.98918 4.03714 0.0 
6.02554 0.627646 0.0 
4.01059 4.0357 0.0 
4.81381 3.9897 0.0 
4.27012 4.05517 0.0 
4.38807 3.98785 0.0 
4.00056 4.04248 0.0 
4.99689 3.99053 0.0 
2.48135 1.40934 0.0 
3.9896 4.00463 0.0 
5.00702 4.0055 0.0 
3.98613 3.98439 0.0 
4.9942 4.00161 0.0 
4.00273 4.04763 0.0 
4.02428 4.00868 0.0 
4.22445 4.06792 0.0 
4.13164 3.96214 0.0 
4.99939 3.99739 0.0 
4.98926 3.99828 0.0 
4.99702 4.01381 0.0 
3.98643 3.99986 0.0 
4.56409 3.94817 0.0 
4.76582 3.98784 0.0 
3.99581 3.98523 0.0 
4.00675 3.9944 0.0 
4.22935 4.07815 0.0 
3.98481 4.00073 0.0 
3.97761 4.0047 0.0 
8.39153 6.28241 0.0 
5.02294 4.01619 0.0 
4.11077 4.06077 0.0 
3.98558 4.00796 0.0 
4.83637 4.02935 0.0 
4.02898 3.97712 0.0 
3.97185 4.00557 0.0 
6.33774 3.85123 0.0 
4.97363 4.0061 0.0 
4.62598 3.98045 0.0 
12.5142 2.07761 0.0 
9.04276 5.96039 0.0 
4.07076 4.03121 0.0 
3.99742 4.04784 0.0 
5.00018 3.98426 0.0 
5.0027 3.99265 0.0 
10.0865 7.39187 0.0 
4.27037 4.11663 0.0 
3.96688 3.93802 0.0 
5.00847 4.01115 0.0 
4.03066 4.0465 0.0 
4.02241 4.04141 0.0 
3.9487 4.03134 0.0 
4.02972 4.05235 0.0 
4.11002 3.98431 0.0 
4.01777 4.04818 0.0 
4.18326 4.04509 0.0 
5.02611 4.00685 0.0 
4.0266 3.96232 0.0 
4.37873 3.97103 0.0 
4.10695 3.94953 0.0 
13.0064 4.46872 0.0 
11.75 5.5876 0.0 
4.28117 3.92206 0.0 
4.03778 3.99834 0.0 
5.01586 4.00977 0.0 
4.99747 4.01842 0.0 
9.4831 3.49413 0.0 
4.27242 3.94793 0.0 
4.98817 4.01929 0.0 
3.95357 4.06538 0.0 
4.00129 4.0073 0.0 
4.59426 4.14794 0.0 
4.04912 3.96046 0.0 
4.76187 3.98803 0.0 
3.97909 4.02016 0.0 
4.00572 3.98505 0.0 
4.89214 4.01878 0.0 
10.7084 2.37312 0.0 
5.00674 4.00102 0.0 
3.99904 3.97967 0.0 
3.94862 4.04213 0.0 
5.04696 4.0697 0.0 
5.00079 3.98878 0.0 
4.01496 4.00719 0.0 
4.00251 4.00671 0.0 
4.88925 4.06774 0.0 
4.78574 3.97052 0.0 
8.94038 7.70202 0.0 
2.33056 5.57699 0.0 
4.14356 3.96689 0.0 
13.3503 2.14216 0.0 
4.62468 4.05306 0.0 
4.90241 3.99403 0.0 
10.8478 4.42307 0.0 
5.00794 4.01633 0.0 
3.97614 4.01755 0.0 
7.25887 4.21713 0.0 
5.46984 4.17168 0.0 
4.83798 4.02812 0.0 
9.15388 3.83278 0.0 
4.07896 4.02838 0.0 
4.05996 4.02956 0.0 
4.0725 4.06182 0.0 
4.14723 3.96872 0.0 
4.04723 3.95307 0.0 
8.98125 6.17249 0.0 
4.08112 4.0495 0.0 
4.77174 3.97521 0.0 
4.99368 3.99911 0.0 
4.28079 4.072 0.0 
4.15643 4.05893 0.0 
4.24232 3.94543 0.0 
4.03117 3.76284 0.0 
4.103 3.99167 0.0 
4.09111 4.05079 0.0 
4.94252 4.01173 0.0 
4.47168 4.06588 0.0 
4.35707 4.02398 0.0 
10.6129 3.71691 0.0 
4.03831 3.95277 0.0 
3.99483 4.02144 0.0 
4.28981 4.11298 0.0 
4.3231 4.06066 0.0 
4.35887 3.96919 0.0 
4.00032 4.00368 0.0 
4.01978 4.02634 0.0 
4.02364 1.36307 0.0 
11.9447 8 0.0 
4.62025 3.98015 0.0 
4.14075 3.99272 0.0 
3.99511 3.99395 0.0 
4.81439 4.03155 0.0 
4.14347 4.06123 0.0 
4.23166 4.06934 0.0 
4.89135 4.15887 0.0 
4.78893 3.98833 0.0 
4.29777 3.96897 0.0 
3.97954 4.04522 0.0 
13.4854 0 0.0 
3.98276 4.03655 0.0 
3.97716 3.98171 0.0 
3.98686 4.01708 0.0 
5.00841 3.97606 0.0 
4.09864 4.07197 0.0 
4.16408 7.74165 0.0 
4.04122 3.94064 0.0 
4.096 3.95606 0.0 
7.41891 4.17354 0.0 
3.97814 4.00223 0.0 
5.04506 4.05426 0.0 
4.18919 3.9015 0.0 
4.05469 3.98217 0.0 
4.16029 3.96798 0.0 
4.00513 3.99 0.0 
4.99456 4.00034 0.0 
3.99462 4.03164 0.0 
11.9981 0 0.0 
4.14983 3.95783 0.0 
4.0703 4.01847 0.0 
4.58337 3.99017 0.0 
7.47514 4.12072 0.0 
4.06117 4.03836 0.0 
4.35643 3.97013 0.0 
4.90178 3.9946 0.0 
8.51121 4.33185 0.0 
12.1347 7.75548 0.0 
4.40894 4.05264 0.0 
4.64819 3.98143 0.0 
4.78463 4.09739 0.0 
12.7435 4.12642 0.0 
4.73185 0.44652 0.0 
5.0336 4.03132 0.0 
0.42318 6.33854 0.0 
4.00773 3.97774 0.0 
4.37506 3.97052 0.0 
3.993 4.0076 0.0 
8.66724 7.12549 0.0 
[...]
<PointData>
  <DataArray type = "Float64" Name="Vitesse" NumberOfComponents="3" format="ascii">
1 0 0.0 
1.0075 0 0.0 
1.00606 0 0.0 
1 0 0.0 
0.441344 0.00471758 0.0 
1.00888 0.000166059 0.0 
0.999967 0.000644086 0.0 
0.880433 -0.170839 0.0 
7.09681e-216 1.44703e-216 0.0 
0.0221568 -0.000919062 0.0 
0.0341642 0.00767204 0.0 
0.0121439 0.00093166 0.0 
1.05055 -0.184945 0.0 
0.647579 -0.0460635 0.0 
0.240037 0.00544732 0.0 
8.06672e-101 1.51118e-101 0.0 
0.547213 -0.0866629 0.0 
0 0 0.0 
0.00231402 -0.000586061 0.0 
1.00939 -0.00167367 0.0 
0.38322 0.198838 0.0 
0.716555 -0.267407 0.0 
0 0 0.0 
0.836984 0.3606 0.0 
1.0088 -5.5968e-05 0.0 
0 0 0.0 
0.0190748 -0.0106083 0.0 
0 0 0.0 
0.563752 -0.0375518 0.0 
-5.20836e-270 -5.82571e-270 0.0 
0.590658 -0.228322 0.0 
0.0595723 -0.0182743 0.0 
0 0 0.0 
0 0 0.0 
0.869587 0.349005 0.0 
1.08875 -0.142762 0.0 
0.126059 0.017448 0.0 
-1.37129e-138 1.11158e-138 0.0 
0.000613143 -9.02332e-06 0.0 
1.00762 3.3604e-05 0.0 
1.05998 -0.0513447 0.0 
0.314607 0.0153009 0.0 
0.0147137 0.00552788 0.0 
1.13734e-252 7.71615e-254 0.0 
0.222681 0.221554 0.0 
0.142575 -0.0144773 0.0 
0.247027 0.0090213 0.0 
-1.61213e-52 5.56133e-55 0.0 
0.013279 0.00155003 0.0 
1.00748 -0.000438294 0.0 
0.801111 -0.0303393 0.0 
0.671167 -0.0826 0.0 
0 0 0.0 
1.01817e-257 7.60133e-259 0.0 
2.23711e-92 7.94478e-93 0.0 
0.193017 -0.294168 0.0 
0.944145 -0.359623 0.0 
0.637967 0.359377 0.0 
0.79879 0.00778836 0.0 
1.00708 -0.001382 0.0 
1.00797 0 0.0 
0.0169527 -0.000926162 0.0 
0.995035 -0.00767106 0.0 
0 0 0.0 
0.185852 -0.0404844 0.0 
-3.05686e-265 -1.59255e-265 0.0 
0.201985 0.0046326 0.0 
0.951046 0.279881 0.0 
0 0 0.0 
0.366186 -0.00517563 0.0 
0.97475 -0.00502809 0.0 
0.0651148 0.0141352 0.0 
0.00731087 0.000264011 0.0 
1.00813 -0.000664155 0.0 
1.0125 -0.000441365 0.0 
0.197454 -0.0263858 0.0 
1.04586 -0.0139182 0.0 
0.120148 0.0433524 0.0 
1.0091 0.000364896 0.0 
0.994157 0.00401642 0.0 
0.564069 0.0811372 0.0 
0.000123521 -1.68846e-06 0.0 
0.920901 0.0364654 0.0 
0.00349855 0.000152393 0.0 
1.00805 4.11392e-05 0.0 
0.733643 0.335845 0.0 
0.492988 -0.011917 0.0 
4.3167e-256 2.92862e-257 0.0 
1.00574 -0.00366557 0.0 
0.999946 0.00202631 0.0 
0.386954 0.257086 0.0 
0.00313227 0.000394339 0.0 
-4.08241e-53 1.30273e-53 0.0 
1.00802 -0.00991899 0.0 
0.871688 -0.044438 0.0 
0.042829 0.0115455 0.0 
-5.4582e-258 -7.36429e-259 0.0 
0 0 0.0 
-8.77528e-124 -3.10966e-124 0.0 
1.03686 -0.103555 0.0 
0.652345 0.000326896 0.0 
0.651528 0.0299753 0.0 
0.0806676 -0.00957604 0.0 
0.333373 0.177559 0.0 
0.00494329 -0.000585681 0.0 
1 0 0.0 
1.01305 -0.00284402 0.0 
0.198253 0.181908 0.0 
0.106673 0.0188699 0.0 
-8.52844e-152 2.51836e-153 0.0 
-1.42646e-170 1.75021e-171 0.0 
1.04952 -0.130201 0.0 
-1.18674e-69 -1.22776e-71 0.0 
0 0 0.0 
0.66266 0.278817 0.0 
7.05027e-254 5.26359e-255 0.0 
0.898343 0.0828102 0.0 
0.00282303 -0.000341235 0.0 
6.16819e-35 2.06272e-35 0.0 
0.00142667 0.00015846 0.0 
0.283285 0.0468393 0.0 
0.617739 0.37047 0.0 
1.00081 -0.150291 0.0 
0.0609606 -0.00160735 0.0 
0.00995386 -1.23638e-05 0.0 
0 0 0.0 
0 0 0.0 
0.887557 -0.0261281 0.0 
0.0210618 -0.0102701 0.0 
0.914878 -0.130885 0.0 
0.0229153 -0.00451279 0.0 
0.30762 0.165694 0.0 
0.062925 -0.0176788 0.0 
1.00868 -0.000633993 0.0 
1.01166 0.000188296 0.0 
0.639113 0.0915595 0.0 
1.00846 0.000222463 0.0 
1.00591 -0.00577317 0.0 
0.646435 0.18186 0.0 
0.723791 0.121248 0.0 
0.999316 0.0025519 0.0 
0.721304 0.155939 0.0 
0.0156152 -0.0608402 0.0 
1.03702 0.0984445 0.0 
0.761427 0.327698 0.0 
0.999376 -0.000583036 0.0 
0.0140749 0.000600099 0.0 
0.000862613 4.79354e-05 0.0 
0.122629 0.0165722 0.0 
0.0498023 0.00413027 0.0 
0.697156 -0.201344 0.0 
0.493796 0.00763742 0.0 
0.742136 -0.209513 0.0 
1.03016 -0.038276 0.0 
0.394487 0.0721996 0.0 
0.111409 -0.0151639 0.0 
1.00903 0.000191378 0.0 
0.47244 0.330651 0.0 
0 0 0.0 
0.946294 -0.0514276 0.0 
1.07359 -0.0952329 0.0 
1.10563 -0.00105149 0.0 
0.995126 -0.0241769 0.0 
0.208936 -0.15739 0.0 
0.713281 0.336027 0.0 
0.0100031 0.000692297 0.0 
0 0 0.0 
1.00854 0.00129024 0.0 
0.682786 0.00851327 0.0 
0 0 0.0 
2.09523e-17 1.04871e-17 0.0 
0.087307 -0.00932135 0.0 
1.00202 0.00172776 0.0 
0.618929 -0.085067 0.0 
0.104442 0.00495588 0.0 
0.0725095 0.00879869 0.0 
1.00833 0.000172262 0.0 
1.00971 -0.00101179 0.0 
1.0005 -0.000464605 0.0 
1.00777 -0.000314575 0.0 
1.00202 -0.00037317 0.0 
0.600646 0.339643 0.0 
0.0494402 -0.117002 0.0 
0.00890063 0.000374694 0.0 
0.479543 -0.445838 0.0 
0.994609 -0.181149 0.0 
0.935652 -0.235069 0.0 
1.02735 0.21664 0.0 
0 0 0.0 
0.461262 -0.0131265 0.0 
0.74746 0.0393065 0.0 
0.0441291 -0.00695651 0.0 
1 0 0.0 
1.62169e-43 -1.47074e-44 0.0 
0.942499 -0.176794 0.0 
1.00703 0.256205 0.0 
1.01164 -0.00117008 0.0 
0.255942 -0.0227541 0.0 
0.111985 0.00758999 0.0 
0.0295145 0.0010018 0.0 
0.480242 -0.0524467 0.0 
0.832701 -0.353674 0.0 
0.0588417 -0.0477322 0.0 
0.595159 -0.346701 0.0 
0.302605 0.0184229 0.0 
-3.03577e-279 -1.58156e-279 0.0 
0.221121 -0.0118812 0.0 
0.923679 -0.211299 0.0 
0.0163276 -0.000617647 0.0 
-2.90211e-35 -1.53572e-36 0.0 
0.00180634 -0.000214547 0.0 
0 0 0.0 
0.316696 0.266924 0.0 
1.02477 -0.10681 0.0 
0.0110706 -0.000529489 0.0 
1.0076 0 0.0 
7.92528e-44 4.98499e-45 0.0 
6.46637e-07 -1.32961e-07 0.0 
1.00849 -0.0013094 0.0 
0.021419 -0.0011089 0.0 
0.260868 -0.0290388 0.0 
0.0534202 -0.00206603 0.0 
0.137898 -0.000262351 0.0 
0.614922 0.0334767 0.0 
0.838825 0.349932 0.0 
0 0 0.0 
0.981291 0.00748724 0.0 
0.318995 0.133266 0.0 
0.0508966 0.0818896 0.0 
0.7597 0.198709 0.0 
5.50277e-77 -1.78913e-77 0.0 
0 0 0.0 
0.43384 0.111006 0.0 
0.15641 0.00560282 0.0 
1.00017 -0.000661173 0.0 
1.01185 0.0347614 0.0 
0.60602 0.313589 0.0 
0 0 0.0 
-6.86513e-299 1.1134e-298 0.0 
0.460784 -0.192162 0.0 
1.08552 -0.180184 0.0 
0.7677 -0.33428 0.0 
0.802211 -0.0240896 0.0 
0.10688 0.00410919 0.0 
0.109449 0.0297136 0.0 
1.00816 -0.000430603 0.0 
1.00866 -0.000988993 0.0 
-4.26679e-278 1.65273e-278 0.0 
0.43556 -0.147356 0.0 
1.04957 0.0740563 0.0 
0.576689 -0.00530176 0.0 
0.849933 -0.119444 0.0 
0.227674 0.00972224 0.0 
6.6756e-251 4.52841e-252 0.0 
0.157341 -0.0164583 0.0 
0.797135 -0.260878 0.0 
0.23683 -0.0877857 0.0 
8.9619e-240 6.47901e-241 0.0 
0.11863 0.0282371 0.0 
0.867334 0.330406 0.0 
0.388551 0.050987 0.0 
0.845773 -0.0288217 0.0 
0 0 0.0 
0.903036 0.289749 0.0 
0.130468 0.00252094 0.0 
0.0760306 -0.00598417 0.0 
1.00964 -0.000802745 0.0 
0.541435 0.298146 0.0 
0.0237652 0.0047582 0.0 
0.323015 0.10796 0.0 
0.343877 -0.0253917 0.0 
1.00979 0.000302183 0.0 
0.503851 0.00957739 0.0 
1.00427 0.0155951 0.0 
0.709329 -0.378074 0.0 
1.00002 0.00107916 0.0 
0.0231138 -0.00144573 0.0 
0.00463697 -0.000744964 0.0 
0.0313402 -0.0105704 0.0 
1.00856 0.000168459 0.0 
0.77255 -0.286581 0.0 
0.829167 -0.362319 0.0 
0.832283 0.00167518 0.0 
1.12811 0.0490946 0.0 
1.0002 0.000977233 0.0 
0.000102129 -1.27508e-05 0.0 
0.818211 0.366295 0.0 
0.700678 -0.295014 0.0 
0.0897941 0.0282273 0.0 
0.969645 0.303656 0.0 
0.0661413 -0.00170585 0.0 
0.710598 0.270572 0.0 
1.009 -0.000735531 0.0 
1.00932 0.00155509 0.0 
0.276759 -0.347379 0.0 
0.377916 -0.00109334 0.0 
-3.65345e-160 2.7013e-161 0.0 
0.675739 0.240928 0.0 
1.00893 -0.000242845 0.0 
0.705873 0.37573 0.0 
0.00472228 0.000129976 0.0 
0 0 0.0 
5.88874e-198 3.89732e-199 0.0 
0.726417 0.308142 0.0 
0.0893514 0.0110542 0.0 
1.00191 -0.00278704 0.0 
0.345089 -0.0242038 0.0 
0.0231338 -0.00956353 0.0 
0.608512 -0.292184 0.0 
1.09675e-15 -1.05833e-16 0.0 
0.761253 0.30518 0.0 
0 0 0.0 
0.112519 0.00970022 0.0 
0.221731 -0.0135309 0.0 
0.0258602 0.00661538 0.0 
0.00349538 0.000515917 0.0 
0.032929 -0.0117201 0.0 
0.424323 -0.123729 0.0 
0.37822 0.0104567 0.0 
2.67283e-06 5.01259e-08 0.0 
0.579618 -0.43368 0.0 
-4.41614e-273 3.57678e-273 0.0 
0.420091 0.0387177 0.0 
0.448596 -0.1004 0.0 
0.540991 -0.0341406 0.0 
1.009 -0.00124543 0.0 
0.0523778 -0.013899 0.0 
0.496184 0.105879 0.0 
0.439531 0.0250494 0.0 
0.0067511 -0.000888347 0.0 
0.303699 -0.100843 0.0 
0.595818 -0.0256598 0.0 
0.95962 0.00560199 0.0 
0.000945358 -0.000190073 0.0 
0.0079896 0.000714216 0.0 
1.009 0.000141014 0.0 
1.00887 -0.00118563 0.0 
0 0 0.0 
0.749638 0.279003 0.0 
0.148443 0.0172624 0.0 
0.0736941 0.0157974 0.0 
1.00731 -0.000257381 0.0 
1.042 0.0988345 0.0 
0.859438 -0.183236 0.0 
0.0314588 -0.0143287 0.0 
0.814444 0.352126 0.0 
0.768369 0.367498 0.0 
0.74676 0.0632976 0.0 
0.86429 0.354878 0.0 
0 0 0.0 
0.813988 0.357047 0.0 
0 0 0.0 
0.0486879 -0.00343761 0.0 
0.94296 -0.334401 0.0 
9.36715e-15 1.2345e-15 0.0 
0.745345 -0.0901823 0.0 
1.01058 -0.000159046 0.0 
1.00832 -0.000554536 0.0 
0.86917 -0.0282787 0.0 
0 0 0.0 
0.0362426 -0.0103552 0.0 
0.0471784 -0.0139699 0.0 
1.00804 0.00201033 0.0 
0.409077 -0.00330731 0.0 
0.0457824 -0.00978134 0.0 
0.810308 0.127087 0.0 
0.0310176 0.0533224 0.0 
1.03873 -0.0125869 0.0 
0.823377 -0.202524 0.0 
9.21101e-07 1.10249e-07 0.0 
0.584327 0.114045 0.0 
0.49768 -0.354787 0.0 
7.96099e-17 -1.30499e-17 0.0 
1.0091 0.000303355 0.0 
0.0257967 -0.000522051 0.0 
0.697537 -0.448675 0.0 
0.767438 0.0873946 0.0 
0.41585 -0.0387942 0.0 
0.107555 0.0160402 0.0 
-2.61575e-276 -1.36274e-276 0.0 
-2.29417e-155 -4.40014e-155 0.0 
0.316735 -0.0274215 0.0 
0.182608 0.00805285 0.0 
1.00781 -0.000182613 0.0 
1.00043 0.00524849 0.0 
0.0446952 0.00118895 0.0 
1.00874 0.000244343 0.0 
4.95407e-05 -4.82218e-06 0.0 
0.0036446 0.000252875 0.0 
1.01106 -0.000861671 0.0 
0.0437107 -0.0168552 0.0 
0.590667 0.0804496 0.0 
0.995206 -0.00429344 0.0 
0.985426 -0.0294626 0.0 
0.00247634 -0.000288673 0.0 
0.94371 -0.000350624 0.0 
0 0 0.0 
0 0 0.0 
0.854257 0.255194 0.0 
2.04832e-05 -1.26199e-06 0.0 
0.991681 -0.260214 0.0 
1.00872 -0.00108008 0.0 
0.331477 0.088352 0.0 
0.128424 0.00593579 0.0 
0.000174975 1.78593e-06 0.0 
0.123107 0.00368832 0.0 
0.0656323 0.0107457 0.0 
0.490843 -0.0102645 0.0 
1.00792 -0.0954165 0.0 
8.21962e-243 5.98055e-244 0.0 
0.263539 0.063573 0.0 
0.00143503 -0.000161669 0.0 
0.0131583 -0.000101674 0.0 
3.26406e-269 2.40471e-270 0.0 
1.00134 -0.00185894 0.0 
1.00968 -0.294875 0.0 
0.507974 0.277109 0.0 
0.981882 0.0797248 0.0 
0 0 0.0 
0.0219764 0.000366621 0.0 
0.00615526 0.00540042 0.0 
0.32442 0.169133 0.0 
1.00678 -0.00371356 0.0 
1.00653 0 0.0 
0.00854508 0.00118763 0.0 
3.33213e-236 2.38992e-237 0.0 
0.335191 -0.349169 0.0 
0.00306711 -0.000348503 0.0 
0.245056 0.0374501 0.0 
0.13979 0.00957706 0.0 
1.01669 -0.0440874 0.0 
0.00706011 0.000661474 0.0 
9.0759e-05 1.73804e-06 0.0 
0.726902 0.190998 0.0 
1.00757 0 0.0 
0.677619 0.198793 0.0 
0.665609 -0.216011 0.0 
0.501004 0.15187 0.0 
0.22663 0.0235143 0.0 
0.906405 0.226151 0.0 
1.00738 0.000639533 0.0 
1.03574 -0.273026 0.0 
0.595179 -0.0742358 0.0 
0.953941 -0.0037386 0.0 
0.536967 -0.0623902 0.0 
0.281883 -0.0315701 0.0 
1.09267 -0.0937894 0.0 
0 0 0.0 
0.000473207 -3.96628e-06 0.0 
0.160819 -0.140453 0.0 
-2.83302e-37 5.71859e-38 0.0 
0.63219 0.284627 0.0 
1.00774 0 0.0 
0.316987 -0.0157789 0.0 
0 0 0.0 
2.82082e-48 3.78391e-49 0.0 
0.858228 -0.00438082 0.0 
9.54595e-13 1.62911e-13 0.0 
0.00771458 0.000234267 0.0 
1.417e-05 1.01287e-06 0.0 
1.00922 -0.00168358 0.0 
1.00655 -6.05444e-05 0.0 
0 0 0.0 
0.0084723 -2.33745e-06 0.0 
0.58501 -0.0376287 0.0 
0.886231 -0.00255999 0.0 
1.00743 -0.000819506 0.0 
0.117472 -0.0215643 0.0 
1.00003 0.000515531 0.0 
0.746008 -0.428534 0.0 
0.0083839 -6.57641e-05 0.0 
0.282699 0.0770682 0.0 
1.00817 -0.00057691 0.0 
0.812483 -0.223063 0.0 
1.00971 -0.00049035 0.0 
0.0631976 -0.0131897 0.0 
-1.57376e-32 -1.76232e-33 0.0 
3.27991e-231 7.82186e-232 0.0 
1.0176 0.000266111 0.0 
0.258047 0.12886 0.0 
0.0330553 -0.0151186 0.0 
1.00628 -0.000146997 0.0 
0.802479 -0.351937 0.0 
0.00994403 -0.000622197 0.0 
0 0 0.0 
0.0132502 -0.00454712 0.0 
0.0734743 0.0544059 0.0 
1.00789 4.4005e-05 0.0 
0 0 0.0 
0.6452 -0.00919107 0.0 
0.0115917 0.00101661 0.0 
0.142996 -0.121117 0.0 
0.0255186 -0.00734262 0.0 
1.0096 0.000148233 0.0 
1.00613 -8.25937e-05 0.0 
0.979886 0.197356 0.0 
-5.61972e-72 2.05658e-73 0.0 
1.00051 0.000591227 0.0 
0.0100639 -0.000909671 0.0 
1.01024 0.00136932 0.0 
0.75975 0.0106607 0.0 
0.33339 0.0107013 0.0 
0 0 0.0 
5.52366e-05 -5.53074e-06 0.0 
1.00005 0.00162657 0.0 
0.00547256 0.0009769 0.0 
0.968421 -0.341563 0.0 
1.00005 0.00266504 0.0 
0.293457 0.0612983 0.0 
0.74725 -0.00187986 0.0 
0.676713 0.000669982 0.0 
0.850194 0.33103 0.0 
7.06217e-19 9.13853e-21 0.0 
0.283765 0.00239157 0.0 
1.00921 0.000174216 0.0 
0.97482 0.174781 0.0 
0.000575049 -5.40623e-05 0.0 
0.561786 -0.207796 0.0 
0.80618 0.165636 0.0 
0.567711 0.00573637 0.0 
0.249366 0.238303 0.0 
0.192848 -0.0680125 0.0 
1.01102 -0.00135471 0.0 
0.00733809 0.00011046 0.0 
1.00001 -0.000531658 0.0 
0.74131 0.0342711 0.0 
5.55458e-07 1.34064e-07 0.0 
0.616588 -0.116682 0.0 
0.988375 -0.00591479 0.0 
0.175121 -0.0381565 0.0 
0.563895 0.0550392 0.0 
0.837879 0.0260364 0.0 
0.89922 0.00128958 0.0 
0.158741 -0.252401 0.0 
0.0111577 0.000596777 0.0 
1.00979 -0.000428334 0.0 
0.446543 -0.0393123 0.0 
0 0 0.0 
0.0103879 0.000577249 0.0 
4.16046e-05 1.9194e-06 0.0 
0 0 0.0 
0.655961 0.00885842 0.0 
0.972097 0.0386086 0.0 
0.843777 0.342656 0.0 
0.0907695 0.0044657 0.0 
1.01221 0.00649591 0.0 
1.00056 -0.000237652 0.0 
0.743088 0.302704 0.0 
0.619477 0.010902 0.0 
0.0103836 -0.000850349 0.0 
0 0 0.0 
0.030132 -0.0130873 0.0 
1.25226e-07 3.54551e-09 0.0 
0.0761703 0.0155893 0.0 
0.8594 -0.402256 0.0 
1.26254e-07 2.64161e-08 0.0 
1.00801 6.57125e-05 0.0 
0.0553888 -0.0170091 0.0 
0.00468024 0.000408048 0.0 
0.0283694 -0.00872612 0.0 
0.776568 0.0638978 0.0 
0.678595 -0.367039 0.0 
1.00493 0.0011343 0.0 
0.594044 -0.143187 0.0 
0.313027 0.269635 0.0 
0.951369 -0.0137094 0.0 
1.00011 -0.00153832 0.0 
8.76199e-50 3.10158e-50 0.0 
1.00924 0.000222963 0.0 
1.00055 0.00429564 0.0 
0.0714695 0.00630677 0.0 
0 0 0.0 
0.99995 -0.000485444 0.0 
0.107121 0.044395 0.0 
1.04592 -0.0400481 0.0 
0.886261 -0.200437 0.0 
3.73951e-05 -1.86354e-06 0.0 
0.31198 -0.261952 0.0 
1.00871 -0.00161236 0.0 
1.00498 -0.00288031 0.0 
0.155575 0.00931771 0.0 
0.470579 -0.0253629 0.0 
0.0370368 -0.00827591 0.0 
2.56309e-12 1.8798e-13 0.0 
1.0725 -0.0587964 0.0 
0.995429 0.00633342 0.0 
0 0 0.0 
0.0794293 -0.0183785 0.0 
0.225296 -0.0425236 0.0 
0.00040137 -1.71882e-05 0.0 
0.696417 -0.158849 0.0 
0.0629415 0.00302527 0.0 
0.157684 -0.0556101 0.0 
0.0125343 0.000598601 0.0 
0.0415225 -0.0152491 0.0 
0.495675 0.236741 0.0 
1.0899 -0.0453906 0.0 
4.17668e-213 8.51621e-214 0.0 
0.816469 0.0014739 0.0 
0.883593 -0.0145575 0.0 
0.115192 0.00493464 0.0 
0.842212 0.000629556 0.0 
1.01051 0.00756544 0.0 
0.998869 -0.00014631 0.0 
-5.4416e-59 1.73639e-59 0.0 
0.779641 0.243563 0.0 
0 0 0.0 
0.924342 -0.280802 0.0 
1.22287e-06 9.19205e-08 0.0 
0.115285 0.141102 0.0 
0.0234061 -0.00447121 0.0 
0.0292978 0.00909429 0.0 
0.0172118 0.000783417 0.0 
-4.65336e-237 -9.23431e-238 0.0 
0.117023 -0.0517366 0.0 
1.46666e-27 1.21189e-28 0.0 
0.160766 0.0926657 0.0 
1.00979 0.000871821 0.0 
1.00388 0.00268967 0.0 
0.040863 -0.000206889 0.0 
1.00421 0.233873 0.0 
0.630812 -0.26193 0.0 
0.906444 -0.391197 0.0 
1.00775 0.000126389 0.0 
0.838522 -0.332195 0.0 
0.121298 0.011114 0.0 
0 0 0.0 
0.847682 0.00245916 0.0 
1.01511 0.00243946 0.0 
-1.64604e-271 6.37587e-272 0.0 
0.784771 -0.277893 0.0 
1.00634 -0.000855574 0.0 
0.967807 -0.00408813 0.0 
0.00090767 7.05283e-05 0.0 
0.0474112 -0.000494096 0.0 
0.155762 0.0223866 0.0 
0.555646 -0.0393141 0.0 
1.08405 -0.0421532 0.0 
0.0836018 0.0144762 0.0 
0.00384798 -0.000330735 0.0 
0.210591 0.0965428 0.0 
0.00183954 -6.85715e-05 0.0 
1.08777 0.110027 0.0 
0.837279 -0.419352 0.0 
4.79304e-63 -2.2404e-64 0.0 
0.140658 0.0039415 0.0 
0.836459 -0.418146 0.0 
1.00727 0.000478495 0.0 
0.0480844 -0.0167713 0.0 
9.29543e-78 1.74136e-78 0.0 
0.925527 0.0014555 0.0 
0.999953 0.00142869 0.0 
0.999616 -0.000483829 0.0 
0.0901005 -0.0314956 0.0 
4.07085e-07 1.33256e-07 0.0 
0.674104 -0.184012 0.0 
0.00813424 0.00549397 0.0 
0.999985 -0.000596452 0.0 
0.755617 0.2127 0.0 
0.571922 0.0112171 0.0 
0.653666 -0.353119 0.0 
0.130278 -0.0199664 0.0 
0.124063 0.0200868 0.0 
0.00527779 0.000416422 0.0 
0.000971004 -0.000179242 0.0 
0.999907 -0.000716756 0.0 
0.129627 -0.0059529 0.0 
0.910182 -0.0270823 0.0 
0.155264 0.0452336 0.0 
0 0 0.0 
0.516797 -0.0776959 0.0 
0.240367 -0.0312315 0.0 
1.11801 0.139428 0.0 
1.00425 -0.00414317 0.0 
-3.41159e-193 -6.76948e-194 0.0 
0.967999 -0.0247122 0.0 
0.839505 0.147748 0.0 
0.203918 0.0247395 0.0 
6.00584e-254 4.48377e-255 0.0 
0.110076 -0.0242759 0.0 
3.63941e-220 3.32777e-220 0.0 
0.00125009 -3.15983e-06 0.0 
0.568497 -0.0641707 0.0 
-4.8843e-128 -1.73085e-128 0.0 
0.0902004 0.0179377 0.0 
3.00025e-44 3.55088e-45 0.0 
1.0075 -0.00139579 0.0 
2.57577e-06 2.93009e-07 0.0 
1.362e-06 6.03121e-08 0.0 
2.1258e-61 1.1666e-62 0.0 
0.112829 -0.0219845 0.0 
0.964877 0.285668 0.0 
-1.47246e-159 3.35822e-160 0.0 
1.2137e-30 -3.88402e-31 0.0 
1.00854 0.000245473 0.0 
1.11632 0.0979304 0.0 
0.0789806 0.0391661 0.0 
0.142364 0.0639636 0.0 
0.252645 0.138915 0.0 
1.00806 0.000140672 0.0 
0.99921 -0.00156497 0.0 
-6.3458e-270 2.45803e-270 0.0 
0.75666 -0.233302 0.0 
0.0893213 0.00418419 0.0 
-2.41517e-251 -2.70144e-251 0.0 
0.0966212 0.0158598 0.0 
1.00894 0.000376372 0.0 
0 0 0.0 
2.44165e-49 8.64298e-50 0.0 
0.751088 -0.00244259 0.0 
0.0801923 -0.0121723 0.0 
0 0 0.0 
1.00907 -0.00130559 0.0 
0.345154 0.0191265 0.0 
1.00818 0.000121724 0.0 
0.701019 -0.0386261 0.0 
0.404326 -0.243401 0.0 
0.633563 -0.026127 0.0 
1.00707 -0.000274137 0.0 
0 0 0.0 
5.38459e-05 -5.93677e-06 0.0 
0.117329 -0.0727954 0.0 
0.0573365 0.00969384 0.0 
1.84672e-289 -6.01583e-290 0.0 
1.00912 -0.00709564 0.0 
0.963555 -0.00613721 0.0 
0.372391 -0.328556 0.0 
0.754876 0.349433 0.0 
0.349014 -0.0175982 0.0 
-3.09209e-261 -1.6109e-261 0.0 
1.05182 -0.048814 0.0 
-7.67186e-145 3.64298e-146 0.0 
0.69663 0.0664333 0.0 
0.999686 -0.00197898 0.0 
0.875603 0.328349 0.0 
0.303131 -0.212978 0.0 
1.00231 0.00490476 0.0 
0.696327 -0.338664 0.0 
1.75258e-58 2.32784e-59 0.0 
0.883109 -0.0332177 0.0 
1.00678 0.00330655 0.0 
1.00924 -0.00096817 0.0 
1.00838 0.000411272 0.0 
1.11395 0.0119264 0.0 
1.00246 -0.000529874 0.0 
-6.21669e-88 4.21825e-90 0.0 
0.109792 0.00423124 0.0 
1.00844 0.000220119 0.0 
0.984888 0.0347233 0.0 
0.0189848 -0.0105879 0.0 
0.780542 -0.323111 0.0 
1.41655e-15 -1.05894e-16 0.0 
0.372512 -0.0366345 0.0 
0.010997 -0.00295862 0.0 
1.00001 -0.000180305 0.0 
0.0882153 -0.0179886 0.0 
0.2867 -0.0283132 0.0 
0.48728 0.136468 0.0 
0.0148754 0.000993177 0.0 
0.547669 -0.397818 0.0 
0.00445435 -0.000529045 0.0 
0.768122 -0.417025 0.0 
0.998793 -0.00405152 0.0 
0.0217248 0.00703376 0.0 
1.01032 -0.00266052 0.0 
0.977537 -0.0405486 0.0 
2.35334e-92 -1.04305e-94 0.0 
0.305237 0.0848889 0.0 
3.10123e-10 3.02889e-11 0.0 
0.624017 0.00227467 0.0 
0.873464 0.00431085 0.0 
0.238822 0.00282037 0.0 
0 0 0.0 
0.871856 -0.000369248 0.0 
0.00138906 -0.000170562 0.0 
1.0466 -0.041376 0.0 
0.74518 -0.0450146 0.0 
0.682895 0.366813 0.0 
0.23487 0.199763 0.0 
0.999996 -0.000174593 0.0 
3.0783e-05 7.06784e-07 0.0 
0.00346959 -8.79451e-05 0.0 
0.965432 -0.0027769 0.0 
1.00776 0.000105532 0.0 
1.02252 -0.0038438 0.0 
0 0 0.0 
1 0 0.0 
0.214446 0.0054949 0.0 
0.108369 -0.0199646 0.0 
0.00022206 1.71463e-05 0.0 
0.749021 -0.148788 0.0 
0.803978 -0.439758 0.0 
1.01169 -0.000957581 0.0 
1.00717 -0.000140822 0.0 
5.74742e-119 -1.23262e-119 0.0 
1.00778 -0.0316405 0.0 
0.0628334 0.000955046 0.0 
-1.21905e-75 -4.31814e-76 0.0 
0.593878 0.140878 0.0 
0.957746 -0.0362819 0.0 
0.0502483 0.00743827 0.0 
1.00823 0.00019074 0.0 
1.00395 -0.00059309 0.0 
1.01148 -0.00166582 0.0 
0.614603 -0.0319377 0.0 
1.00124 -0.000400201 0.0 
1.00959 -0.00111621 0.0 
1.00081 -0.00148894 0.0 
2.80535e-260 2.08958e-261 0.0 
1.01775 -0.0288467 0.0 
1.01086 0.00157054 0.0 
1.01064 0.000976817 0.0 
0.545867 0.306138 0.0 
0.0324745 -0.000377882 0.0 
1.00037 0.0014178 0.0 
4.06136e-256 3.02465e-257 0.0 
0.00134472 -0.000170257 0.0 
0.84556 0.0364655 0.0 