<VTKFile type="UnstructuredGrid" version="0.1" byte_order="LittleEndian">
  <UnstructuredGrid>
    <Piece NumberOfPoints="12603" NumberOfCells="25050">
      <Points>
        <DataArray type = "Float64" NumberOfComponents="3" format="ascii">
0 0 0.0 
14 0 0.0 
14 8 0.0 
0 8 0.0 
4.38439 3.94377 0.0 
12.8057 1.94595 0.0 
0.483697 5.24337 0.0 
4.4744 3.97399 0.0 
4.1189 4.05833 0.0 
4.756 3.93222 0.0 
9.77113 7.50778 0.0 
4.20673 3.96687 0.0 
4.27028 3.96753 0.0 
3.99903 4.00913 0.0 
4.08596 3.93674 0.0 
5.02947 4.10767 0.0 
4.4023 3.95598 0.0 
3.99998 3.99906 0.0 
4.88667 3.99306 0.0 
4.05477 4.02613 0.0 
4.00396 3.99259 0.0 
4.83881 3.99142 0.0 
8.29677 5.77683 0.0 
4.19203 3.91913 0.0 
4.08781 3.96517 0.0 
4.00922 3.99881 0.0 
4.02803 4.04844 0.0 
5.33823 4.11121 0.0 
4.01927 3.99345 0.0 
4.06971 4.04313 0.0 
4.11094 4.03801 0.0 
4.84218 4.09374 0.0 
5.01215 3.99407 0.0 
3.98196 3.98783 0.0 
5.00749 4.02107 0.0 
4.36023 4.05917 0.0 
4.21852 4.08078 0.0 
4.3939 4.06889 0.0 
4.03416 4.05264 0.0 
4.12387 3.9193 0.0 
5.00166 3.98677 0.0 
3.95734 4.00923 0.0 
4.61923 4.05429 0.0 
4.16423 4.05989 0.0 
4.13575 4.06721 0.0 
4.9372 4.01293 0.0 
4.44926 4.07505 0.0 
7.44293 1.91428 0.0 
4.52181 4.06218 0.0 
4.15255 2.00511 0.0 
4.20265 3.96607 0.0 
4.62278 3.95949 0.0 
5.05366 4.0148 0.0 
4.221 4.08678 0.0 
14 6.11123 0.0 
4.88462 4.02145 0.0 
3.96293 3.99513 0.0 
4.03268 4.02147 0.0 
4.49736 4.06287 0.0 
4.21924 4.07784 0.0 
4.17714 3.73623 0.0 
3.99922 3.99464 0.0 
3.99602 4.00219 0.0 
4.09602 3.97761 0.0 
4.99983 4.00536 0.0 
14 5.21618 0.0 
4.18971 4.12812 0.0 
8.55881 8 0.0 
4.93369 4.06282 0.0 
4.89746 3.94678 0.0 
4.14605 3.99725 0.0 
4.1822 4.05937 0.0 
4.33339 4.06812 0.0 
4.37101 4.06811 0.0 
7.23778 1.68811 0.0 
4.83686 3.44886 0.0 
4.27441 4.05318 0.0 
4.02826 3.9183 0.0 
4.23647 3.95137 0.0 
5.00128 3.99352 0.0 
4.08373 4.05666 0.0 
3.83066 4.0752 0.0 
5.06584 4.12408 0.0 
5.04845 4.04311 0.0 
4.00614 4.11531 0.0 
4.86602 3.992 0.0 
4.44497 3.97249 0.0 
5.53497 3.74047 0.0 
4.89875 3.95471 0.0 
13.1452 3.87426 0.0 
4.93597 4.01252 0.0 
5.72494 4.06934 0.0 
10.1833 0.248119 0.0 
4.02875 4.04115 0.0 
4.1741 4.07586 0.0 
3.74119 4.14832 0.0 
3.7391 1.31631 0.0 
1.26284 5.53443 0.0 
4.75813 3.98699 0.0 
3.99964 4.01132 0.0 
4.16391 3.96777 0.0 
3.91267 2.38613 0.0 
4.83564 3.99059 0.0 
4.02638 3.97895 0.0 
4.77004 3.98819 0.0 
4.12124 3.98374 0.0 
4.83896 4.02811 0.0 
3.9973 4.00729 0.0 
4.15544 3.92346 0.0 
3.90645 4.05002 0.0 
5.18194 4.12652 0.0 
11.4317 0 0.0 
4.02244 4.02798 0.0 
4.17043 4.08184 0.0 
0 1.4212 0.0 
4.76544 4.02257 0.0 
4.03492 3.96665 0.0 
0.471297 5.53111 0.0 
5.01331 3.98969 0.0 
4.09925 3.9694 0.0 
4.78556 3.9878 0.0 
4.12754 3.92728 0.0 
4.00862 3.98581 0.0 
4.79296 3.98918 0.0 
4.08696 3.9688 0.0 
9.30616 6.7349 0.0 
4.196 3.98086 0.0 
2.26118 6.20994 0.0 
4.07325 4.06871 0.0 
4.06783 4.06315 0.0 
3.99252 4.00665 0.0 
4.00947 4.02943 0.0 
3.99093 4.00808 0.0 
4.71826 4.04366 0.0 
4.57479 4.08961 0.0 
4.62399 4.0537 0.0 
4.24294 4.04149 0.0 
4.05784 3.98854 0.0 
4.4274 3.97215 0.0 
4.38441 4.10746 0.0 
4.10081 3.94382 0.0 
4.98235 4.01343 0.0 
4.69125 3.98389 0.0 
5.00368 4.02219 0.0 
10.7396 5.64099 0.0 
4.05929 4.01962 0.0 
0.922815 3.77166 0.0 
3.99197 3.99669 0.0 
4.0014 4.01066 0.0 
3.9818 4.03131 0.0 
3.96476 4.03852 0.0 
4.31213 3.9695 0.0 
3.97233 4.04194 0.0 
4.44575 4.06566 0.0 
3.99803 4.00953 0.0 
4.00621 4.04562 0.0 
1.12644 3.34247 0.0 
3.92251 4.00785 0.0 
4.91023 3.99364 0.0 
3.86336 3.90224 0.0 
4.30446 4.06831 0.0 
5.22095 7.48607 0.0 
11.5801 5.80616 0.0 
4.12856 3.96835 0.0 
4.0603 3.96053 0.0 
5.04007 4.02119 0.0 
6.22933 0.792451 0.0 
13.2653 2.91651 0.0 
4.00756 4.02287 0.0 
4.03262 3.9819 0.0 
4.23103 3.92099 0.0 
4.17857 3.91238 0.0 
4.79102 4.05549 0.0 
4.84895 3.99247 0.0 
4.04716 4.01881 0.0 
4.35922 4.09121 0.0 
3.8428 3.97329 0.0 
4.57165 4.02609 0.0 
4.10608 4.02928 0.0 
6.41561 3.89069 0.0 
4.50985 7.40044 0.0 
4.0927 3.96862 0.0 
4.15942 4.03647 0.0 
4.75739 3.98643 0.0 
5.05919 4.01855 0.0 
2.15923 7.15628 0.0 
4.155 4.05726 0.0 
4.53346 4.03036 0.0 
4.01759 3.99821 0.0 
5.0468 2.13587 0.0 
7.18887 6.80823 0.0 
1.24078 0.550265 0.0 
9.10545 7.45594 0.0 
2.38032 0.204862 0.0 
4.01517 4.03055 0.0 
3.99882 3.99972 0.0 
4.26596 4.06825 0.0 
4.13669 4.04946 0.0 
3.99908 3.98836 0.0 
4.01026 3.99982 0.0 
4.2762 3.72488 0.0 
4.93636 3.99678 0.0 
4.1938 4.04426 0.0 
4.21507 3.9482 0.0 
4.05644 3.97561 0.0 
4.97222 4.02124 0.0 
4.17001 3.97668 0.0 
4.57833 4.03054 0.0 
4.24539 4.06728 0.0 
4.31769 3.11793 0.0 
11.9473 3.59927 0.0 
5.1327 4.04445 0.0 
4.01577 3.95866 0.0 
5.41298 4.10308 0.0 
4.00818 4.013 0.0 
4.221 4.05846 0.0 
4.55464 3.91433 0.0 
3.9901 3.98452 0.0 
4.97439 3.96659 0.0 
1.00188 2.56354 0.0 
6.54837 4.20004 0.0 
7.69958 4.28684 0.0 
4.00618 4.01823 0.0 
5.95756 4.13237 0.0 
4.1797 4.07872 0.0 
2.51481 7.76207 0.0 
3.99899 4.01393 0.0 
4.73854 4.0558 0.0 
4.67941 4.01821 0.0 
13.2253 0 0.0 
13.5339 3.50077 0.0 
0.847225 3.49236 0.0 
4.05471 3.96974 0.0 
4.22117 4.07113 0.0 
9.51686 4.48852 0.0 
5.08198 4.04957 0.0 
5.02947 4.00625 0.0 
4.01768 3.98933 0.0 
4.9423 3.96068 0.0 
4.06822 3.79171 0.0 
4.69376 4.03499 0.0 
4.08711 3.98632 0.0 
4.58465 4.05796 0.0 
4.29217 4.09464 0.0 
4.01254 4.0098 0.0 
3.98048 4.05294 0.0 
4.00357 4.03077 0.0 
4.13386 4.04638 0.0 
3.98816 4.01224 0.0 
4.04749 4.09281 0.0 
4.05142 4.01968 0.0 
0.833891 1.27417 0.0 
3.99752 4.02893 0.0 
4.01884 3.99521 0.0 
4.02253 3.97625 0.0 
3.98628 3.99582 0.0 
4.72738 4.04754 0.0 
12.2374 6.2727 0.0 
4.01754 3.97341 0.0 
4.05927 4.01126 0.0 
4.53798 3.97616 0.0 
4.13581 4.0815 0.0 
4.03555 4.04122 0.0 
9.55669 5.91713 0.0 
4.00774 3.99043 0.0 
5.02032 4.0056 0.0 
4.3171 4.12404 0.0 
4.30064 4.07443 0.0 
3.93549 3.94275 0.0 
3.98198 3.97396 0.0 
4.10615 3.96866 0.0 
5.10311 4.0306 0.0 
8.20853 3.96723 0.0 
2.26452 4.22301 0.0 
4.02495 4.02882 0.0 
4.09629 4.05145 0.0 
4.44318 3.92652 0.0 
5.03379 4.02602 0.0 
4.18359 4.0716 0.0 
4.16203 3.96831 0.0 
8.1459 5.49937 0.0 
4.00316 4.00723 0.0 
4.00097 4.00279 0.0 
4.71307 3.98463 0.0 
3.9961 4.02386 0.0 
4.04638 4.02867 0.0 
4.09936 4.00752 0.0 
4.00614 4.06087 0.0 
5.18793 4.05304 0.0 
1.19147 2.31655 0.0 
3.98111 4.00805 0.0 
4.55176 3.97783 0.0 
3.99352 3.97666 0.0 
0.747562 5.69493 0.0 
4.00111 4.00203 0.0 
4.00359 4.03909 0.0 
4.59661 4.06343 0.0 
9.56561 3.03903 0.0 
3.98586 3.96653 0.0 
3.9066 3.95543 0.0 
11.3109 3.9311 0.0 
11.7169 4.54401 0.0 
4.21363 3.94429 0.0 
4.22872 4.06781 0.0 
8.28236 0.599457 0.0 
4.02402 4.04636 0.0 
4.08476 4.08 0.0 
4.75235 3.81019 0.0 
4.06133 4.06985 0.0 
5.04267 4.00787 0.0 
3.99417 4.04189 0.0 
7.6181 7.09785 0.0 
4.71441 7.15979 0.0 
3.99997 3.99241 0.0 
4.41092 4.08744 0.0 
4.20181 4.04725 0.0 
3.98918 4.03714 0.0 
6.02554 0.627646 0.0 
4.01059 4.0357 0.0 
4.05626 3.90637 0.0 
4.27012 4.05517 0.0 
4.67264 4.02292 0.0 
4.00056 4.04248 0.0 
4.00064 4.00115 0.0 
2.48135 1.40934 0.0 
3.9896 4.00463 0.0 
4.77271 3.96584 0.0 
3.98613 3.98439 0.0 
4.50947 3.96352 0.0 
4.00273 4.04763 0.0 
4.02428 4.00868 0.0 
4.16433 3.96707 0.0 
6.61761 4.00249 0.0 
4.79747 1.7408 0.0 
4.41724 3.97146 0.0 
4.99702 4.01381 0.0 
3.98643 3.99986 0.0 
4.56409 3.94817 0.0 
4.77378 4.03723 0.0 
3.99581 3.98523 0.0 
5.00832 3.99845 0.0 
4.12644 3.96842 0.0 
3.98481 4.00073 0.0 
3.97761 4.0047 0.0 
8.39153 6.28241 0.0 
6.57902 3.18132 0.0 
4.12852 4.06229 0.0 
4.11077 4.06077 0.0 
3.98558 4.00796 0.0 
4.80863 4.03223 0.0 
4.33649 4.08673 0.0 
4.7165 4.04392 0.0 
4.32402 4.06909 0.0 
3.99441 4.00023 0.0 
3.80086 4.10952 0.0 
10.9849 0.302685 0.0 
4.38139 3.95798 0.0 
9.04276 5.96039 0.0 
4.07076 4.03121 0.0 
4.31686 4.0715 0.0 
3.99705 4.04765 0.0 
5.00029 3.98416 0.0 
4.00076 4.00823 0.0 
4.27037 4.11663 0.0 
4.47787 3.97469 0.0 
4.79906 4.03358 0.0 
9.31722 3.89693 0.0 
4.02241 4.04141 0.0 
3.9487 4.03134 0.0 
4.02972 4.05235 0.0 
4.09536 4.04617 0.0 
4.01777 4.04818 0.0 
4.14166 4.07981 0.0 
3.98772 3.90048 0.0 
4.0266 3.96232 0.0 
6.83754 0.866937 0.0 
4.10695 3.94953 0.0 
13.0064 4.46872 0.0 
4.09476 4.08011 0.0 
4.28117 3.92206 0.0 
4.03778 3.99834 0.0 
4.55133 4.07684 0.0 
4.07188 4.042 0.0 
4.08368 3.86714 0.0 
4.27242 3.94793 0.0 
4.98817 4.01929 0.0 
3.95357 4.06538 0.0 
9.40383 4.95267 0.0 
4.10175 3.95894 0.0 
4.19173 3.9525 0.0 
4.26266 4.06868 0.0 
5.01169 4.00049 0.0 
4.00572 3.98505 0.0 
3.99235 4.09508 0.0 
5.17999 4.20915 0.0 
3.26805 4.20077 0.0 
3.99904 3.97967 0.0 
3.94862 4.04213 0.0 
6.70793 3.84663 0.0 
3.02665 2.14412 0.0 
3.99735 4.00608 0.0 
4.02483 3.97834 0.0 
4.92969 4.00512 0.0 
4.00313 4.00997 0.0 
4.0014 3.92767 0.0 
8.94038 7.70202 0.0 
2.33056 5.57699 0.0 
4.11104 3.96782 0.0 
11.0676 4.16917 0.0 
4.00214 3.99159 0.0 
10.7084 2.37312 0.0 
10.8478 4.42307 0.0 
5.00794 4.01633 0.0 
3.97614 4.01755 0.0 
4.54347 4.06086 0.0 
5.46984 4.17168 0.0 
4.85463 4.25252 0.0 
9.15388 3.83278 0.0 
4.73333 3.98549 0.0 
4.05996 4.02956 0.0 
4.50099 3.96689 0.0 
4.07218 4.06206 0.0 
4.31161 4.08673 0.0 
8.98125 6.17249 0.0 
4.6618 4.04927 0.0 
5.02611 4.00685 0.0 
4.81838 4.03087 0.0 
4.65455 3.9819 0.0 
1.95665 6.95462 0.0 
5.00025 4.00682 0.0 
4.049 3.94967 0.0 
4.03027 3.99926 0.0 
4.09119 3.91804 0.0 
4.9111 3.99468 0.0 
4.29891 4.07157 0.0 
3.99686 4.00472 0.0 
4.51578 3.97642 0.0 
4.03831 3.95277 0.0 
4.37308 4.06983 0.0 
4.28981 4.11298 0.0 
4.3231 4.06066 0.0 
10.3101 1.90552 0.0 
4.03036 3.76315 0.0 
4.01978 4.02634 0.0 
4.0488 4.03914 0.0 
4.18846 4.06784 0.0 
3.9947 4.00336 0.0 
5.00397 3.99911 0.0 
3.99511 3.99395 0.0 
4.51926 3.97479 0.0 
4.14347 4.06123 0.0 
4.4535 3.97301 0.0 
4.98754 4.00406 0.0 
5.08887 3.98174 0.0 
4.09378 3.94595 0.0 
2.77151 1.33737 0.0 
4.01707 3.9715 0.0 
3.97954 4.04522 0.0 
13.4854 0 0.0 
3.98276 4.03655 0.0 
3.97716 3.98171 0.0 
3.98686 4.01708 0.0 
5.00841 3.97606 0.0 
4.99901 3.99971 0.0 
4.47342 3.97368 0.0 
4.04122 3.94064 0.0 
4.096 3.95606 0.0 
3.98202 3.95508 0.0 
3.97814 4.00223 0.0 
4.66974 4.12297 0.0 
4.18919 3.9015 0.0 
4.39899 4.17078 0.0 
[...]
<PointData>
  <DataArray type = "Float64" Name="Vitesse" NumberOfComponents="3" format="ascii">
1 0 0.0 
1.00734 0 0.0 
1.00593 0 0.0 
1 0 0.0 
0.441148 0.00465586 0.0 
1.00883 0.000281082 0.0 
0.999969 0.000644856 0.0 
0.00727144 0.000112791 0.0 
0.31909 0.0613533 0.0 
0.592499 0.0182295 0.0 
1.00742 -0.000234217 0.0 
0.017672 0.000906053 0.0 
0.0131601 0.000729173 0.0 
0.161525 0.168034 0.0 
1.05064 -0.185262 0.0 
0.743906 -0.049743 0.0 
0.239729 0.00542076 0.0 
0.0271146 -0.0629831 0.0 
0.0064199 0.000145334 0.0 
0 0 0.0 
5.74631e-273 -7.00975e-274 0.0 
0.000493375 1.41491e-05 0.0 
1.00939 -0.00169226 0.0 
1.02064 -0.0782024 0.0 
0.276789 -0.0319451 0.0 
0 0 0.0 
0.836965 0.360012 0.0 
0.799637 -0.0359177 0.0 
0 0 0.0 
0.1603 0.0417205 0.0 
0 0 0.0 
0.563569 -0.0375593 0.0 
0.0729091 0.0142621 0.0 
0.590333 -0.228558 0.0 
0.059694 -0.0181998 0.0 
0 0 0.0 
0.532166 0.0570883 0.0 
0.0146604 -0.000740039 0.0 
0.869462 0.348565 0.0 
1.08901 -0.142748 0.0 
0.126237 0.0174498 0.0 
0.685659 -0.00601438 0.0 
0.00464873 -0.000534581 0.0 
0.0575926 0.00747052 0.0 
0.531864 0.0958106 0.0 
0.00243923 -0.000278041 0.0 
0.146227 -0.00497306 0.0 
1.00978 0.000758774 0.0 
0.00506484 0.000145615 0.0 
1.00873 -0.00642495 0.0 
0.0363088 -0.00155299 0.0 
0.247 0.00903633 0.0 
0.0774897 -0.00670585 0.0 
0.682714 0.0754815 0.0 
1.0074 -0.000551685 0.0 
0.00342917 -0.000507843 0.0 
0.670744 -0.0826891 0.0 
0 0 0.0 
3.35474e-07 -1.5982e-09 0.0 
0.444128 0.0460639 0.0 
1.04797 -0.0725095 0.0 
0.192592 -0.293871 0.0 
0.133518 -0.0763309 0.0 
-2.05329e-190 1.79222e-191 0.0 
0.0161515 -0.00898421 0.0 
1.00698 -0.0016057 0.0 
1.10979 0.163272 0.0 
1.00798 0 0.0 
0.296779 -0.0272473 0.0 
0.469719 0.0184924 0.0 
-2.56074e-218 -3.62823e-219 0.0 
7.89348e-110 1.36376e-110 0.0 
4.35794e-40 2.16702e-41 0.0 
5.40951e-40 8.08565e-42 0.0 
1.00973 0.000613096 0.0 
1.03616 -0.000929625 0.0 
0 0 0.0 
0.997029 -0.228948 0.0 
0.361835 -0.00546486 0.0 
0.0653577 0.0141799 0.0 
0.60944 0.161705 0.0 
0.902383 0.0326392 0.0 
0.858474 -0.0513124 0.0 
0.197905 -0.0263874 0.0 
0.920867 0.196897 0.0 
0.00725438 0.000547488 0.0 
0.0126626 0.000827631 0.0 
1.01414 0.0161153 0.0 
0.388901 0.0160165 0.0 
0.883581 0.00218963 0.0 
0.00110659 -3.25707e-05 0.0 
0.609151 -0.0164594 0.0 
1.00805 4.38812e-05 0.0 
0.73308 0.334806 0.0 
0.582887 0.0834266 0.0 
0.941705 0.0330258 0.0 
1.00575 -0.00366592 0.0 
0.99995 0.002029 0.0 
0.00535617 -6.93878e-05 0.0 
0.217213 0.21754 0.0 
8.903e-07 -5.58994e-08 0.0 
1.00802 -0.0099364 0.0 
0.00748529 0.000429258 0.0 
0.227458 -0.0766896 0.0 
0.000172022 9.80469e-06 0.0 
0 0 0.0 
0.00288667 -0.000291973 0.0 
0.155762 0.115723 0.0 
1.03676 -0.103453 0.0 
0.838914 0.0485184 0.0 
0.87207 -0.0445339 0.0 
1.0078 5.2586e-24 0.0 
0.331678 0.175744 0.0 
0.765384 0.118835 0.0 
1 0 0.0 
7.95342e-70 -9.33323e-71 0.0 
0.7704 -0.234418 0.0 
0.999983 0.000662326 0.0 
0.106774 0.0190056 0.0 
0.0416544 -0.00349053 0.0 
0.0107971 7.36225e-05 0.0 
1.04961 -0.130095 0.0 
0.322944 -0.20254 0.0 
1.45929e-232 1.82742e-233 0.0 
0.117746 -0.0114968 0.0 
1.00811 -0.000680529 0.0 
4.65535e-190 -3.34388e-192 0.0 
1.00164 0.0039283 0.0 
0.950817 0.27993 0.0 
0.900927 0.27785 0.0 
0.283021 0.0460317 0.0 
0.618711 0.370044 0.0 
0.337974 0.0653587 0.0 
0.00326539 -8.25402e-05 0.0 
0.419406 -0.0189809 0.0 
0.00419597 -0.000315778 0.0 
0 0 0.0 
0 0 0.0 
0.00916231 0.0012152 0.0 
0.774537 0.020901 0.0 
0.915043 -0.131148 0.0 
0.0229972 -0.00450288 0.0 
0.00493863 0.000438986 0.0 
0.0630383 -0.0176282 0.0 
1.00873 -0.000684592 0.0 
0 0 0.0 
0.999516 2.66822e-05 0.0 
0.339084 -0.24514 0.0 
0.144286 0.167827 0.0 
0.646291 0.182197 0.0 
0.723655 0.121366 0.0 
0.00019637 2.31644e-05 0.0 
0.721199 0.15609 0.0 
-5.21334e-24 1.0461e-25 0.0 
0.198274 0.178841 0.0 
0.76198 0.327853 0.0 
0.999374 -0.000584137 0.0 
0.791469 -0.0105666 0.0 
0.0110577 0.000377222 0.0 
0.911208 -0.0639678 0.0 
2.37793e-46 1.57588e-47 0.0 
1.00954 0.000519454 0.0 
1.00846 -0.000563565 0.0 
0.0219289 -0.00070718 0.0 
0.709271 -0.146165 0.0 
0.0788858 -0.0142665 0.0 
1.00914 -0.000154709 0.0 
1.00908 0.000410751 0.0 
0.47272 0.330611 0.0 
-3.83216e-34 1.10568e-34 0.0 
0.946033 -0.0513961 0.0 
1.07353 -0.0951524 0.0 
0.143398 -0.0145045 0.0 
1.14734e-06 4.92344e-08 0.0 
0 0 0.0 
0.491525 0.0109786 0.0 
0.887612 -0.0261844 0.0 
-2.63487e-197 -3.80613e-198 0.0 
0 0 0.0 
0.874807 0.00673132 0.0 
1.00853 0.00129065 0.0 
0.1016 -0.00969531 0.0 
0 0 0.0 
0.0105762 0.000165933 0.0 
0.0876213 -0.00927172 0.0 
1.00202 0.00172456 0.0 
1.0805e-07 1.69364e-08 0.0 
-3.77395e-199 -5.35729e-200 0.0 
0 0 0.0 
1.01295 -0.00311961 0.0 
1.00972 -0.00100977 0.0 
1.0005 -0.00046532 0.0 
1.00779 -0.000315199 0.0 
1.00202 -0.000373716 0.0 
0.600338 0.337529 0.0 
0.0492019 -0.116799 0.0 
0.0311994 0.00212327 0.0 
6.86999e-31 1.18756e-31 0.0 
0.479425 -0.44596 0.0 
0 0 0.0 
1.0598 -0.0521646 0.0 
1.16275e-14 6.1843e-16 0.0 
0 0 0.0 
0.460532 -0.0132821 0.0 
-1.4377e-52 2.56617e-53 0.0 
0.0442133 -0.00696159 0.0 
7.70987e-72 -1.11295e-73 0.0 
-3.48444e-200 -5.18261e-201 0.0 
0.0426438 0.00332514 0.0 
1.02143 -0.0189301 0.0 
1.01136 -0.00117786 0.0 
0.256527 -0.0229147 0.0 
0.944171 -0.359758 0.0 
0.760651 -0.0310471 0.0 
1.48588e-79 8.83396e-80 0.0 
4.46484e-168 -7.71561e-169 0.0 
0.798162 0.00777476 0.0 
0.594926 -0.347 0.0 
0.302487 0.0183634 0.0 
0.999826 -0.00100729 0.0 
0.994715 -0.00753912 0.0 
1.0076 -0.0036939 0.0 
0.323008 0.261676 0.0 
0.898827 -0.0131181 0.0 
0.638369 0.0898474 0.0 
1.00287 0.000563902 0.0 
0.312633 0.267045 0.0 
0.109411 -0.0106331 0.0 
0 0 0.0 
1.00751 0 0.0 
1.01248 -1.45311e-05 0.0 
0.999658 -0.000235772 0.0 
0.335844 -0.0680867 0.0 
0.228621 0.0212232 0.0 
1.00868 -0.00120863 0.0 
0.261436 -0.0291154 0.0 
0.0535378 -0.00190404 0.0 
9.91227e-204 -1.20927e-204 0.0 
0.345845 0.0170373 0.0 
1.02405 -0.10664 0.0 
-1.72759e-80 5.83455e-82 0.0 
0 0 0.0 
0.00981952 -0.000323165 0.0 
0.672959 0.0441405 0.0 
0 0 0.0 
0.759734 0.198807 0.0 
0.638954 0.360477 0.0 
0 0 0.0 
0.433138 0.11055 0.0 
0.967497 0.265166 0.0 
0 0 0.0 
1.00016 -0.000646745 0.0 
0.606071 0.314841 0.0 
0 0 0.0 
0.52622 -0.197777 0.0 
0.460421 -0.192502 0.0 
0.0360475 -0.00388554 0.0 
1.00754 -0.000476353 0.0 
0.767757 -0.334297 0.0 
6.87394e-290 3.68597e-291 0.0 
0.0127798 0.000241909 0.0 
0.90958 0.179782 0.0 
0.66192 0.278046 0.0 
1.00869 -0.000960584 0.0 
0 0 0.0 
0.042656 -0.00329598 0.0 
1.05001 0.0736478 0.0 
0.158028 0.00549374 0.0 
0.849893 -0.11951 0.0 
0.716278 -0.267164 0.0 
0.0508008 -0.00284278 0.0 
0.157856 -0.0165591 0.0 
0.726475 0.00238129 0.0 
0.995775 0.0020637 0.0 
0.306246 0.16438 0.0 
0.235141 0.0600069 0.0 
0.689227 0.00341201 0.0 
0.0922034 -0.018516 0.0 
0.395028 0.0491876 0.0 
9.7084e-08 -5.72604e-09 0.0 
1.00977 -0.0019774 0.0 
3.10135e-191 1.52808e-191 0.0 
-1.16382e-238 -1.26405e-238 0.0 
0.00734915 0.000482401 0.0 
0.540563 0.29948 0.0 
-1.07645e-304 -3.83265e-305 0.0 
3.73619e-247 2.0034e-248 0.0 
0.822278 0.283981 0.0 
0.344407 -0.0256067 0.0 
0.999934 -0.00134087 0.0 
0.503417 0.00929268 0.0 
8.76889e-48 1.39922e-48 0.0 
0.709193 -0.378322 0.0 
1.00002 0.00108067 0.0 
-9.6501e-239 -1.03318e-238 0.0 
0.713996 0.336495 0.0 
0.0794586 -0.00601245 0.0 
1.00937 0.000928128 0.0 
0.772197 -0.286761 0.0 
0.852232 -0.0729749 0.0 
0.83185 0.00159845 0.0 
1.01171 6.97639e-05 0.0 
0.556129 -0.0194728 0.0 
0.0964182 0.00693488 0.0 
1.00857 0.000168494 0.0 
0.818345 0.36568 0.0 
1.0109 0.270786 0.0 
1.05957 0.00690982 0.0 
0.969347 0.303507 0.0 
0.0663008 -0.00157793 0.0 
0.710906 0.271019 0.0 
1.00902 -0.000736444 0.0 
1.00932 0.00155856 0.0 
0.276045 -0.347193 0.0 
0.37755 -0.00116784 0.0 
1.35448e-212 1.70338e-213 0.0 
0.67581 0.241393 0.0 
1.00893 -0.000243027 0.0 
0.706801 0.375542 0.0 
1.04053 -0.197949 0.0 
-3.68737e-304 -2.82507e-305 0.0 
1.62185e-200 -1.22074e-201 0.0 
0.726845 0.308536 0.0 
-7.97186e-246 -7.09848e-246 0.0 
1.00192 -0.00279025 0.0 
0.344758 -0.0247816 0.0 
0.226929 0.00980712 0.0 
0.608249 -0.292447 0.0 
0.158517 0.00574753 0.0 
0.76167 0.30538 0.0 
0 0 0.0 
0.0207336 -0.00173643 0.0 
0.584416 -0.00123233 0.0 
1.01045 -0.00339828 0.0 
0.0138894 8.45158e-05 0.0 
0.0329616 -0.0116969 0.0 
0.423957 -0.124118 0.0 
0.378085 0.0103906 0.0 
0.00504687 -0.00020575 0.0 
0.579484 -0.433966 0.0 
0.039635 0.00665344 0.0 
0.0205762 9.86541e-05 0.0 
0.448209 -0.100773 0.0 
0.540543 -0.0343856 0.0 
1.009 -0.0012403 0.0 
1.01089 0.0031952 0.0 
0.402577 0.0748071 0.0 
0.495499 0.10525 0.0 
0.439051 0.024616 0.0 
0.00253876 -0.000242451 0.0 
0.418312 0.0129046 0.0 
0.00363845 -0.000499214 0.0 
0.000384477 1.23789e-05 0.0 
0.208783 -0.157637 0.0 
0.921164 0.0366069 0.0 
1.00794 4.59421e-05 0.0 
0.20387 0.00460132 0.0 
1.00885 -0.00116952 0.0 
0 0 0.0 
0.0686317 0.00187096 0.0 
0.748237 0.27777 0.0 
0.149557 0.0173682 0.0 
0.0848809 0.109007 0.0 
1.04227 0.0989376 0.0 
-6.42866e-23 -8.39728e-24 0.0 
0.00312693 -0.000506107 0.0 
0.844847 0.00563772 0.0 
0.768363 0.366566 0.0 
0.746544 0.0633436 0.0 
0.864316 0.354441 0.0 
4.0845e-15 1.08197e-15 0.0 
0.814389 0.356764 0.0 
0.851387 0.160344 0.0 
0.940939 -0.176501 0.0 
0.942715 -0.334239 0.0 
1.00912 0.00011205 0.0 
0.74555 -0.0902557 0.0 
1.01079 -0.000323025 0.0 
1.00683 0.256158 0.0 
0.869008 -0.0281907 0.0 
0 0 0.0 
0.221621 -0.0119891 0.0 
0.0652936 0.018937 0.0 
1.04914 -0.145733 0.0 
0.408787 -0.0031134 0.0 
0.045868 -0.00979657 0.0 
0.810127 0.127204 0.0 
1.00947 -0.00148353 0.0 
0.45415 -0.0486803 0.0 
0.38709 -0.0127525 0.0 
0.0490003 0.00317475 0.0 
0.0389968 0.00255565 0.0 
0.49697 -0.353708 0.0 
0.879772 0.200188 0.0 
1.02885 -0.0382288 0.0 
0.981323 0.00743383 0.0 
0.697364 -0.448813 0.0 
0.767312 0.0874299 0.0 
0.959913 0.00386056 0.0 
1.00234 -0.00602927 0.0 
0.1263 0.0779844 0.0 
0.318427 -0.109414 0.0 
1.39133e-63 -3.16608e-64 0.0 
0.0429727 0.0636737 0.0 
0.933519 -0.23488 0.0 
1.00783 -0.000181731 0.0 
1.00044 0.00524535 0.0 
0.0716066 -0.0060607 0.0 
0.914324 -0.0021595 0.0 
0.238607 -0.255077 0.0 
1.00909 0.000350008 0.0 
1.01131 -0.00106215 0.0 
0.0438034 -0.0167552 0.0 
0.590459 0.0804511 0.0 
0.00661462 -0.000330619 0.0 
0.985124 -0.0295239 0.0 
1.07133 -0.0276163 0.0 
0.943093 -0.000397544 0.0 
0.00787105 0.00108399 0.0 
0 0 0.0 
0.110853 0.00434621 0.0 
0.860618 0.257402 0.0 
0.453564 0.0206052 0.0 
1.00871 -0.00107048 0.0 
0.000455858 -1.77578e-05 0.0 
0.0488068 -0.00326488 0.0 
0.00231301 -0.000359207 0.0 
0.00776635 0.000764807 0.0 
1.00159 0.00190124 0.0 
0.0191375 -0.0105176 0.0 
1.01885 -0.261449 0.0 
0 0 0.0 
1.08587 -0.180474 0.0 
0.000182827 6.22762e-06 0.0 
0.0851681 0.00192981 0.0 
0.118848 0.027756 0.0 
0.000507133 4.81346e-05 0.0 
1.0095 -0.294924 0.0 
0.0283294 -0.000260843 0.0 
0.982139 0.0795455 0.0 
0 0 0.0 
1.00896 0.000293703 0.0 
1.00793 -0.0956893 0.0 
0.322186 0.166823 0.0 
0.322747 0.107955 0.0 
0.24134 0.0269498 0.0 
0.1859 -0.0409559 0.0 
0.0238156 0.00489191 0.0 
0.334777 -0.349531 0.0 
0.0205051 0.000980712 0.0 
0.244533 0.0376409 0.0 
0.0106144 0.000590247 0.0 
0.00190982 -0.000298185 0.0 
0.218602 0.0199239 0.0 
0.902483 -0.138185 0.0 
1.00263 -0.00303479 0.0 
0.829157 -0.362366 0.0 
0.726864 0.191199 0.0 
1.00745 0 0.0 
0.677566 0.199126 0.0 
0.665369 -0.216206 0.0 
0.500308 0.151829 0.0 
0.226523 0.0235227 0.0 
0 0 0.0 
0.0107275 0.000650635 0.0 
1.0358 -0.273163 0.0 
0.594789 -0.0751986 0.0 
0.82344 -0.247337 0.0 
0.536571 -0.0626417 0.0 
0.846222 -0.028884 0.0 
1.09268 -0.0937309 0.0 
1.12787 0.0490076 0.0 
0 0 0.0 
0.347653 0.0877506 0.0 
0.701248 -0.295195 0.0 
1.00832 -0.0446153 0.0 
1.08622e-47 -1.76713e-48 0.0 
0.0687847 -0.00448998 0.0 
-9.55187e-108 -1.06707e-108 0.0 
0 0 0.0 
0.0259626 0.00668044 0.0 
0.107808 0.0160328 0.0 
0.029578 0.00116113 0.0 
2.39605e-29 1.42454e-29 0.0 
1.04971e-40 -4.19721e-42 0.0 
1.00912 -0.00161372 0.0 
1.00652 -6.91547e-05 0.0 
0 0 0.0 
0.0209838 -0.0101639 0.0 
5.55821e-07 2.18562e-07 0.0 
1.00965 0.00186314 0.0 
0.22929 -0.0352523 0.0 
0.117801 -0.0215106 0.0 
1.00003 0.000517507 0.0 
0.745378 -0.428691 0.0 
1.00974 0.00373872 0.0 
2.31885e-07 -1.52865e-09 0.0 
0.38572 -0.130341 0.0 
0.278097 -0.0782865 0.0 
2.20982e-07 4.90093e-08 0.0 
1.00002 0 0.0 
0.00444879 8.11008e-05 0.0 
0.17592 0.0639481 0.0 
0.922396 -0.198459 0.0 
0.00301233 -0.000422365 0.0 
0.0331263 -0.0150025 0.0 
0.595442 -0.0258279 0.0 
1.01388 0.0027481 0.0 
0.802333 -0.352208 0.0 
1.09223 0.0110642 0.0 
1.00933 0.000654008 0.0 
0.995109 -0.0241772 0.0 
1.00648 0 0.0 
1.00787 5.8854e-05 0.0 
0.0663994 0.0198563 0.0 
0.644925 -0.00929021 0.0 
0.165153 -0.00285632 0.0 
0.00883475 0.000478961 0.0 
0 0 0.0 
1.00962 0.000254985 0.0 
1.00863 0.000503901 0.0 
0.0215308 -0.000231828 0.0 
0.990403 0.00251915 0.0 
1.00051 0.000592317 0.0 
6.69309e-34 -7.53287e-36 0.0 
1.01028 0.00139368 0.0 
1.00979 0.000340878 0.0 
0 0 0.0 
0 0 0.0 
1.00924 0.0314825 0.0 
1.00005 0.00162441 0.0 
0.0258491 -0.000377801 0.0 
0.968452 -0.341625 0.0 
1.00991 0.00012909 0.0 
0.482245 -0.021506 0.0 
0.0774522 0.00326004 0.0 
0.97889 -0.00125694 0.0 
3.99165e-135 -8.49127e-136 0.0 
0.849828 0.330579 0.0 
0.120108 0.0432958 0.0 
0.331177 0.0116973 0.0 
1.0092 0.000236735 0.0 
0.974717 0.175621 0.0 
0.839212 0.349297 0.0 
0.561359 -0.208043 0.0 
0.806152 0.165579 0.0 
0.0342485 0.0078312 0.0 
0.41628 -0.0388749 0.0 
0.923644 0.126904 0.0 
1.01104 -0.00134472 0.0 
0.243767 0.238154 0.0 
1.00001 -0.000531626 0.0 
0.0363376 -0.0101956 0.0 
0.31656 -0.0274428 0.0 
0.616145 -0.116835 0.0 
0.987831 -0.00591804 0.0 
0.647877 -0.0461953 0.0 
0.563595 0.0549387 0.0 
0.837508 0.0258015 0.0 
1.00989 0.00112351 0.0 
0.158322 -0.251907 0.0 
0.263632 -0.100163 0.0 
0.0611316 -0.00145855 0.0 
0.2152 -0.00594242 0.0 
0.290486 0.0583586 0.0 
0 0 0.0 
1.0088 -5.69218e-05 0.0 
0.101707 0.0363716 0.0 
0 0 0.0 
0.655824 0.00879539 0.0 
0.988812 -0.00118792 0.0 
0.84347 0.342108 0.0 
0.190831 -0.0215852 0.0 
3.15629e-10 -6.68978e-11 0.0 
0.353812 0.0903156 0.0 
0.742472 0.302052 0.0 
0.619249 0.0108086 0.0 
1.02878 -0.142807 0.0 
0.382208 0.197675 0.0 
1.00751 5.28606e-05 0.0 
0 0 0.0 
0.385246 -0.0471563 0.0 
0.0763043 0.0157521 0.0 
0.8593 -0.402511 0.0 
0.908641 -0.00157766 0.0 
1.00802 7.37558e-05 0.0 
2.68302e-07 -3.77523e-09 0.0 
0.0468722 0.000508902 0.0 
0.0284364 -0.00856773 0.0 
1.01206 -0.00198837 0.0 
0.677821 -0.367515 0.0 
1.00492 0.00113437 0.0 
4.63798e-118 -8.23963e-120 0.0 
0.593572 -0.143337 0.0 
0.0228788 -0.00103818 0.0 
0.129945 -0.0154668 0.0 
0.0393894 -0.000925973 0.0 
0.57945 -0.00162625 0.0 
1.00924 0.000224917 0.0 
-5.11814e-196 -7.25126e-197 0.0 
1.00054 0.00428753 0.0 
0.0715343 0.00646271 0.0 
0 0 0.0 
0.999949 -0.000485258 0.0 
0.00416726 0.00022339 0.0 
1.01058 0.00170499 0.0 
0.00700883 -7.60684e-05 0.0 
1.00869 -0.000900706 0.0 
0.311631 -0.262278 0.0 
0.045015 0.0150569 0.0 
1.00498 -0.00288452 0.0 
0.151623 0.00819442 0.0 
0.470151 -0.0257161 0.0 
-1.02717e-21 9.16735e-23 0.0 
0.0371177 -0.00829731 0.0 
0.282329 -0.0316059 0.0 
1.00818 -0.000429607 0.0 
0.632264 0.285519 0.0 
7.38369e-281 3.95931e-282 0.0 
5.22234e-231 1.97878e-232 0.0 
1.03371e-08 -7.95848e-10 0.0 
0 0 0.0 
1.00815 -0.000673027 0.0 
5.10126e-32 1.46569e-32 0.0 
0.465883 -0.00833852 0.0 
1.00692 -0.000420677 0.0 
0.0314209 -0.0104134 0.0 
0.494598 0.235598 0.0 
0.686698 -0.0635051 0.0 
0.0133004 -0.00457475 0.0 
3.69831e-258 -2.39722e-259 0.0 
1.00911 0.000360348 0.0 
0.884259 -0.0143847 0.0 
0.857784 -0.00446447 0.0 
1.00031 -0.150735 0.0 
1.01051 0.00755963 0.0 
0.998866 -0.0001482 0.0 
0.947729 -0.00906836 0.0 
0.0107842 -6.90646e-05 0.0 
0 0 0.0 
0.0381118 -0.00695851 0.0 
0.535452 -0.0307027 0.0 
0.0158619 -0.000468281 0.0 
0.0234572 -0.00432997 0.0 
4.36269e-228 1.83701e-229 0.0 
-4.55648e-193 -7.14563e-194 0.0 
0.521368 -0.0907585 0.0 
0.0871239 0.00664162 0.0 
0.0634515 -0.013001 0.0 
1.00847 0.000221788 0.0 
1.03785 0.0994851 0.0 
1.00993 0.000715297 0.0 
1.00388 0.00268449 0.0 
0.040948 -1.70839e-05 0.0 
0.000144508 -1.4959e-05 0.0 
0 0 0.0 
0.906443 -0.391393 0.0 
1.0076 0.000199296 0.0 
0.838356 -0.331758 0.0 
0.121362 0.0110674 0.0 
0.999339 0.00256129 0.0 
1.00692 -0.000218193 0.0 
1.01511 0.00245921 0.0 
0.279853 0.0778886 0.0 
0.784017 -0.277256 0.0 
3.48158e-07 1.38654e-08 0.0 
0.0771265 -0.0085914 0.0 
0.932548 -0.044221 0.0 
0.0293973 0.0091755 0.0 
1.00024 -0.000620764 0.0 
0.142903 -0.120727 0.0 
0.0255626 -0.00739198 0.0 
0 0 0.0 
0.155942 0.0224856 0.0 
9.09067e-06 6.55449e-07 0.0 
-2.95467e-24 -2.78486e-25 0.0 
3.32226e-294 2.46763e-295 0.0 
1.08818 0.110135 0.0 
0.837117 -0.419612 0.0 
6.14445e-05 4.01978e-06 0.0 
0.814182 0.351414 0.0 
0.836227 -0.418469 0.0 
0.0302045 -0.01295 0.0 
0.0482091 -0.0166539 0.0 
0.494332 0.00776024 0.0 
0.0135782 0.000682364 0.0 
6.29375e-244 -7.67817e-245 0.0 
0.999953 0.00142747 0.0 
0.999615 -0.000484008 0.0 
0.00919717 0.000748955 0.0 
-2.68943e-206 -3.81029e-207 0.0 
0.020586 -0.00152474 0.0 
0.760383 -0.0382683 0.0 
0.0446092 0.00784282 0.0 
0.999985 -0.000596224 0.0 
0.774935 0.0633192 0.0 
0.571594 0.0110625 0.0 
0.653483 -0.35338 0.0 
0.186803 -0.00935905 0.0 
0.13069 -0.01993 0.0 
0.124216 0.0201516 0.0 
0.0532906 0.000360949 0.0 
0.000212322 1.36122e-05 0.0 
0.999907 -0.000716868 0.0 
0.993739 -0.181679 0.0 
0.910159 -0.0271002 0.0 
0.0795714 -0.0183462 0.0 
0 0 0.0 
0.516383 -0.0779914 0.0 
0.682619 0.00843483 0.0 
1.1195 0.139652 0.0 
1.00425 -0.00414783 0.0 
0.00867019 0.000227692 0.0 
0.0604951 -0.0161252 0.0 
0.839584 0.147721 0.0 
1.00835 0.00018376 0.0 
1.0098 0.000307724 0.0 
1.00896 -0.00113498 0.0 
1.01158 0.000791576 0.0 
1.00796 0.00201936 0.0 
-1.04801e-73 -1.07188e-75 0.0 
0.567736 -0.0657192 0.0 
0.0904025 0.0180336 0.0 
0.0739286 0.0158725 0.0 
0.115088 0.00818829 0.0 
0.122579 0.0166879 0.0 
0.695617 -0.158767 0.0 
0.0314918 -0.0141935 0.0 
0.129465 0.00246551 0.0 
0.0475099 -0.000308304 0.0 
0.000175829 1.5051e-05 0.0 
0.965493 -0.00387959 0.0 
1.00855 0.000245068 0.0 
1.1172 0.0977589 0.0 
0.506733 0.278235 0.0 
0.656143 0.000759802 0.0 
0.890309 -0.153286 0.0 
1.00799 0.000210635 0.0 
0.999209 -0.00156836 0.0 
0.899699 0.00130699 0.0 
0.208237 0.0252862 0.0 
0.0155291 -0.000603121 0.0 
0.000288258 2.10405e-05 0.0 
0.0154793 -0.0607534 0.0 
1.46617e-05 2.48062e-06 0.0 
0.0966811 0.0160167 0.0 
0.252557 0.137504 0.0 
0.000817212 -4.09086e-05 0.0 
1.34992e-142 7.6211e-144 0.0 
0.670621 0.110676 0.0 
0.0803124 -0.0121905 0.0 
0 0 0.0 
1.00904 -0.00130169 0.0 
0.952984 -0.00380431 0.0 
1.00816 0.000170218 0.0 
0.700516 -0.0387128 0.0 
0.139201 0.00154741 0.0 
0.0031742 0.000110926 0.0 
1.00705 -0.00031509 0.0 
0 0 0.0 
5.96848e-23 5.23614e-24 0.0 
0.90916 0.0106874 0.0 
0.0574361 0.00988006 0.0 
0.552855 0.149636 0.0 
1.00919 -0.00692247 0.0 
0 0 0.0 
0.0139272 -0.00434877 0.0 
0.00698187 0.00664428 0.0 
0.755557 0.349493 0.0 
0.0060685 0.0006951 0.0 
0.795387 -0.254397 0.0 
1.05184 -0.0487506 0.0 
0.0150035 -0.000927959 0.0 
0.695036 0.0669 0.0 
0.999686 -0.00198351 0.0 
0.875284 0.327997 0.0 
1.10587 -0.000721407 0.0 
1.00232 0.00490299 0.0 
0.696181 -0.338894 0.0 
2.28208e-08 -6.43727e-09 0.0 
1.17964e-65 -1.05099e-66 0.0 
1.00678 0.00330685 0.0 
0.747016 0.0388297 0.0 
1.00925 -0.000967177 0.0 
1.00838 0.0004108 0.0 
0 0 0.0 
1.00246 -0.000530207 0.0 
1.00026 -0.000839596 0.0 
0.10007 0.00466873 0.0 
1.00845 0.000220648 0.0 
1.08991 -0.0453388 0.0 
1.67175e-05 -3.99914e-07 0.0 
0.780412 -0.323437 0.0 
0.773908 0.000461596 0.0 
0.320123 0.131852 0.0 
0.435193 -0.147724 0.0 
0.0110089 -0.00288919 0.0 
1.00001 -0.000180442 0.0 
0.0883645 -0.0179775 0.0 
0.28729 -0.0284379 0.0 
1.43385e-08 1.07106e-09 0.0 
0.584538 -0.0376117 0.0 
0.0555466 -0.0168911 0.0 
2.13126e-31 4.60505e-33 0.0 
0.767581 -0.417331 0.0 
0.998792 -0.00406065 0.0 
0.0217776 0.00710569 0.0 
1.01042 -0.00270074 0.0 
0.977529 -0.0405774 0.0 
0 0 0.0 
0.9239 -0.280712 0.0 
-8.56631e-194 7.47716e-195 0.0 
0.0898823 0.0110322 0.0 
0.0284548 5.74825e-05 0.0 
0.238341 0.00273866 0.0 
0 0 0.0 
0.0113422 0.000304223 0.0 
0 0 0.0 
0.129915 0.0281707 0.0 
0.745575 -0.0452023 0.0 
0.68386 0.367192 0.0 