<VTKFile type="UnstructuredGrid" version="0.1" byte_order="LittleEndian">
  <UnstructuredGrid>
    <Piece NumberOfPoints="12897" NumberOfCells="25633">
      <Points>
        <DataArray type = "Float64" NumberOfComponents="3" format="ascii">
0 0 0.0 
14 0 0.0 
14 8 0.0 
0 8 0.0 
4.16782 4.09801 0.0 
6.9641 4.31234 0.0 
11.8856 5.40534 0.0 
4.93736 4.01214 0.0 
4.09208 3.95602 0.0 
4.05305 3.93488 0.0 
4.33592 4.0755 0.0 
4.22237 3.99113 0.0 
4.47972 3.97484 0.0 
4.17937 3.96643 0.0 
3.96554 4.00011 0.0 
12.1222 6.79508 0.0 
5.0806 3.96616 0.0 
4.18793 3.79397 0.0 
4.00325 3.99521 0.0 
1.00301 3.05384 0.0 
4.01323 3.99894 0.0 
4.21613 4.06762 0.0 
4.25007 4.10489 0.0 
4.70363 4.12648 0.0 
4.21382 3.96539 0.0 
4.4867 4.03438 0.0 
4.34097 3.99418 0.0 
4.00962 4.08349 0.0 
4.28283 3.94673 0.0 
4.01104 3.98573 0.0 
4.02428 4.03941 0.0 
4.36723 4.05555 0.0 
4.24569 4.05438 0.0 
9.67221 0.852756 0.0 
4.68925 4.05519 0.0 
3.98822 4.0043 0.0 
4.00327 3.99438 0.0 
4.17759 3.97818 0.0 
4.09533 4.03459 0.0 
4.00922 3.99881 0.0 
3.87647 4.36416 0.0 
12.7967 4.95651 0.0 
4.67098 3.98299 0.0 
4.96358 3.99774 0.0 
4.04915 4.03323 0.0 
4.22348 3.96595 0.0 
4.49163 4.06498 0.0 
3.93682 3.99751 0.0 
4.11094 4.03801 0.0 
6.46235 5.54304 0.0 
4.7197 4.04409 0.0 
4.19353 4.07857 0.0 
5.05241 3.95835 0.0 
4.6535 3.98161 0.0 
4.05779 3.94742 0.0 
9.67562 3.21043 0.0 
4.15251 3.9659 0.0 
4.02815 4.04832 0.0 
4.62801 4.05408 0.0 
4.35472 4.08038 0.0 
4.96709 3.98166 0.0 
13.3549 8 0.0 
5.50065 6.93147 0.0 
4.3208 3.96915 0.0 
4.62784 4.05568 0.0 
4.96507 4.02144 0.0 
4.01076 4.00369 0.0 
4.3018 4.08028 0.0 
4.01647 3.99236 0.0 
4.10121 4.047 0.0 
4.30487 4.0701 0.0 
0 6.14681 0.0 
4.24572 4.1162 0.0 
4.0339 4.05256 0.0 
6.43644 7.53599 0.0 
4.0192 3.99331 0.0 
4.96495 3.99605 0.0 
3.93455 3.52488 0.0 
4.97524 4.02614 0.0 
4.17785 3.95317 0.0 
4.06234 3.9498 0.0 
5.00785 4.00312 0.0 
10.8833 7.73481 0.0 
4.61397 3.97962 0.0 
14 6.11123 0.0 
4.75909 4.03826 0.0 
3.99379 4.00703 0.0 
3.96293 3.99513 0.0 
4.22096 3.95804 0.0 
4.97893 4.00607 0.0 
3.9956 4.03796 0.0 
3.87595 4.05047 0.0 
3.97807 4.03955 0.0 
3.88293 4.06948 0.0 
5.05924 3.9693 0.0 
4.05538 3.9957 0.0 
4.43258 4.06772 0.0 
6.24246 5.09827 0.0 
4.0416 3.97678 0.0 
5.03684 4.01469 0.0 
4.88044 0 0.0 
4.87439 3.99196 0.0 
4.2266 4.04317 0.0 
3.9986 0 0.0 
4.3024 3.96785 0.0 
2.18452 1.43095 0.0 
14 5.21618 0.0 
8.23482 7.7858 0.0 
2.32058 7.68471 0.0 
4.11367 4.05232 0.0 
4.28749 4.07809 0.0 
3.94943 3.96456 0.0 
6.89479 7.20775 0.0 
4.76751 4.0543 0.0 
4.80536 4.01156 0.0 
4.88682 4.02129 0.0 
4.29529 4.08944 0.0 
4.77858 3.98757 0.0 
5.00671 4.01055 0.0 
4.35343 3.94951 0.0 
4.02821 4.03091 0.0 
4.55344 4.06024 0.0 
4.77679 6.83218 0.0 
4.00374 3.93898 0.0 
5.05395 3.9835 0.0 
3.05817 4.59047 0.0 
4.34569 4.08404 0.0 
4.27433 3.96801 0.0 
4.37798 8 0.0 
4.12623 4.0709 0.0 
4.08373 4.05666 0.0 
4.09568 4.05562 0.0 
5.79237 3.76941 0.0 
4.92963 3.9603 0.0 
4.27852 0 0.0 
5.04845 4.04311 0.0 
4.29262 4.07791 0.0 
4.19776 3.93671 0.0 
10.2807 1.2926 0.0 
4.13434 4.07811 0.0 
4.57048 4.10246 0.0 
4.69163 4.07246 0.0 
4.04894 3.98467 0.0 
4.70266 8 0.0 
5.12685 3.90547 0.0 
4.18678 4.0643 0.0 
10.7487 6.98032 0.0 
4.94393 3.97392 0.0 
4.96092 3.99635 0.0 
4.22225 3.98357 0.0 
4.47952 4.06488 0.0 
5.52872 3.97338 0.0 
4.1741 4.07586 0.0 
3.99922 3.99464 0.0 
4.55863 4.05907 0.0 
4.6978 4.06442 0.0 
9.28793 6.2702 0.0 
4.36117 4.05683 0.0 
10.366 2.72684 0.0 
3.91267 2.38613 0.0 
4.02873 4.0411 0.0 
4.88146 4.04087 0.0 
4.29787 4.08601 0.0 
4.08859 4.05676 0.0 
4.55409 4.09639 0.0 
5.41928 4.06199 0.0 
5.24138 0.4505 0.0 
4.12124 3.98374 0.0 
5.46391 0 0.0 
4.08226 3.93581 0.0 
4.17912 4.05461 0.0 
4.18442 4.04414 0.0 
4.24743 3.99271 0.0 
4.13497 4.11481 0.0 
4.99458 4.03862 0.0 
4.77342 3.98749 0.0 
4.1871 4.07564 0.0 
4.1829 4.06659 0.0 
4.12635 4.07409 0.0 
0 1.4212 0.0 
4.25507 3.95107 0.0 
4.35954 3.9698 0.0 
4.18679 4.08465 0.0 
4.47718 4.07948 0.0 
3.99924 4.00166 0.0 
4.33924 3.94067 0.0 
4.25777 4.07923 0.0 
4.9908 4.01037 0.0 
4.96347 3.98813 0.0 
4.0644 3.93891 0.0 
2.65179 3.74538 0.0 
4.16503 4.11076 0.0 
4.25803 4.11093 0.0 
4.59652 3.96811 0.0 
4.98085 4.00458 0.0 
4.19206 3.91938 0.0 
4.91088 4.08087 0.0 
3.96023 4.01528 0.0 
4.09641 3.95124 0.0 
4.12454 3.92729 0.0 
4.08491 4.0641 0.0 
3.96293 4.03138 0.0 
4.14918 4.05705 0.0 
4.06298 3.99231 0.0 
4.35916 4.0592 0.0 
4.23768 4.04493 0.0 
4.02699 4.00512 0.0 
4.21125 3.95113 0.0 
3.99252 4.00665 0.0 
4.87648 3.99232 0.0 
4.17636 4.06982 0.0 
4.01378 4.004 0.0 
4.01706 3.99618 0.0 
3.94066 3.96869 0.0 
4.1525 3.96186 0.0 
3.95819 3.97698 0.0 
1.63427 7.45641 0.0 
4.55044 4.05955 0.0 
4.23165 4.07938 0.0 
4.93899 3.99577 0.0 
4.15636 4.04974 0.0 
3.95778 3.98461 0.0 
5.01406 4.00201 0.0 
3.9419 3.97853 0.0 
4.09014 3.92605 0.0 
4.19018 4.05306 0.0 
4.10081 3.94382 0.0 
4.44815 3.97225 0.0 
4.35064 3.94531 0.0 
4.67038 4.03724 0.0 
3.99651 4.05409 0.0 
3.99523 3.95021 0.0 
4.22913 4.08121 0.0 
5.00368 4.02219 0.0 
5.82087 5.4979 0.0 
3.9771 4.03148 0.0 
4.28395 4.08907 0.0 
4.44839 3.97337 0.0 
4.113 3.96879 0.0 
4.15561 4.10177 0.0 
4.18309 4.12442 0.0 
3.96476 4.03852 0.0 
4.34994 4.09246 0.0 
4.55503 4.06085 0.0 
6.88657 4.79014 0.0 
4.18236 3.96352 0.0 
3.96822 4.02719 0.0 
3.97233 4.04194 0.0 
3.98573 3.91699 0.0 
0.374979 4.67127 0.0 
4.39564 4.08373 0.0 
4.72735 3.98607 0.0 
4.20876 3.92492 0.0 
3.92251 4.00785 0.0 
0.808626 5.25399 0.0 
4.41138 4.09545 0.0 
3.98207 3.99993 0.0 
4.35297 4.06185 0.0 
5.15491 3.95658 0.0 
4.3089 4.04268 0.0 
4.01216 4.01854 0.0 
4.17814 3.96349 0.0 
3.9628 1.8174 0.0 
4.14583 4.0438 0.0 
3.94564 3.99975 0.0 
4.45474 3.97278 0.0 
4.63198 4.05243 0.0 
4.21188 3.96598 0.0 
5.0401 4.02083 0.0 
4.98371 4.01321 0.0 
4.0062 4.04545 0.0 
4.58743 3.97991 0.0 
4.0945 4.04782 0.0 
4.95013 4.23385 0.0 
11.7013 4.10211 0.0 
4.27554 4.05011 0.0 
4.85725 4.02523 0.0 
5.01224 4.10726 0.0 
4.1384 3.95607 0.0 
9.99449 1.23884 0.0 
4.93044 3.99484 0.0 
4.5533 4.04791 0.0 
4.2284 4.07124 0.0 
4.36894 4.08372 0.0 
4.05428 3.94079 0.0 
4.7011 4.0451 0.0 
6.60052 7.75686 0.0 
4.02341 4.03456 0.0 
4.61145 3.92414 0.0 
4.52724 7.41561 0.0 
5.05919 4.01855 0.0 
4.3605 4.07918 0.0 
9.5561 5.17515 0.0 
3.87392 4.19363 0.0 
4.22714 3.92146 0.0 
4.38845 4.07639 0.0 
4.42482 3.97213 0.0 
4.05058 4.05394 0.0 
0.371987 0.577063 0.0 
4.01887 4.0029 0.0 
4.63926 4.06169 0.0 
4.06103 3.9941 0.0 
4.15767 3.96792 0.0 
1.24078 0.550265 0.0 
4.00012 4.00174 0.0 
4.8545 3.9917 0.0 
2.38032 0.204862 0.0 
5.23492 3.96715 0.0 
9.1005 7.43296 0.0 
9.48986 0.253823 0.0 
4.26148 3.94171 0.0 
4.03169 4.0302 0.0 
4.02782 4.02524 0.0 
5.47551 0.287738 0.0 
4.01517 4.03055 0.0 
4.09666 3.96129 0.0 
3.99623 4.0615 0.0 
4.73082 4.04293 0.0 
3.97691 4.10046 0.0 
4.02246 4.02836 0.0 
4.4021 3.97169 0.0 
3.99908 3.98836 0.0 
5.14793 4.17318 0.0 
4.12151 3.94609 0.0 
4.7425 4.04071 0.0 
3.81271 3.98978 0.0 
14 7.66915 0.0 
4.59315 3.97837 0.0 
4.479 4.07651 0.0 
2.524 2.40322 0.0 
4.97222 4.02124 0.0 
4.3304 3.96947 0.0 
4.12673 3.95742 0.0 
11.4717 0.893933 0.0 
7.31964 5.1282 0.0 
4.2163 3.94824 0.0 
4.03905 3.97643 0.0 
4.22957 3.95099 0.0 
8.40006 2.63256 0.0 
4.29145 3.9671 0.0 
5.1327 4.04445 0.0 
4.84592 4.02679 0.0 
12.676 0.986025 0.0 
4.85248 4.00915 0.0 
3.9991 3.99656 0.0 
4.13834 3.82506 0.0 
4.2655 3.94563 0.0 
4.66909 3.9828 0.0 
4.93511 4.01376 0.0 
3.99014 3.98454 0.0 
4.12408 3.94161 0.0 
4.9956 3.98923 0.0 
4.22125 4.03864 0.0 
4.62402 3.9801 0.0 
4.66701 4.07141 0.0 
4.0089 4.00797 0.0 
9.03522 1.89505 0.0 
4.5079 4.06501 0.0 
4.03513 3.9876 0.0 
3.99882 3.99972 0.0 
6.24658 4.08565 0.0 
4.07393 4.02262 0.0 
5.16613 4.24223 0.0 
6.60526 2.58087 0.0 
4.94508 3.99577 0.0 
4.11519 4.05302 0.0 
4.14183 3.94415 0.0 
3.87595 4.26381 0.0 
4.255 4.06009 0.0 
6.009 5.26609 0.0 
4.51983 4.11882 0.0 
4.97741 4.01129 0.0 
4.06061 3.96987 0.0 
4.30211 3.98484 0.0 
4.65902 4.05111 0.0 
4.17983 4.0788 0.0 
4.61606 3.98928 0.0 
4.23063 4.06495 0.0 
4.2489 4.09629 0.0 
5.06347 3.99507 0.0 
4.39596 3.97081 0.0 
4.2295 4.0772 0.0 
4.32398 4.05563 0.0 
5.08198 4.04957 0.0 
4.36455 3.93574 0.0 
5.02947 4.00625 0.0 
5.10123 3.82604 0.0 
5.4893 5.41837 0.0 
4.46545 4.83907 0.0 
8.67743 7.6852 0.0 
4.00236 3.99534 0.0 
6.91256 3.08935 0.0 
4.08123 3.94142 0.0 
3.99581 4.00545 0.0 
7.04624 0.443875 0.0 
4.60787 3.97988 0.0 
4.27377 4.0402 0.0 
3.99883 4.01382 0.0 
4.74692 3.98636 0.0 
4.15971 4.03211 0.0 
4.08942 3.95104 0.0 
10.0046 4.09293 0.0 
4.41893 3.97218 0.0 
4.01165 4.04753 0.0 
4.72617 3.98526 0.0 
4.21544 4.06632 0.0 
4.20227 4.08039 0.0 
4.23985 4.08128 0.0 
4.24579 4.08867 0.0 
4.37414 4.07002 0.0 
4.99552 4.00205 0.0 
4.10203 3.95404 0.0 
4.86055 4.02574 0.0 
3.99752 4.02893 0.0 
4.8711 4.05387 0.0 
4.26259 4.0847 0.0 
4.15582 4.07076 0.0 
4.49949 3.98638 0.0 
4.27205 4.06864 0.0 
4.1339 4.047 0.0 
7.69612 2.66902 0.0 
4.85324 4.02504 0.0 
4.01204 4.00974 0.0 
4.2193 3.9661 0.0 
4.11453 3.97148 0.0 
4.30064 3.96818 0.0 
4.34791 4.12055 0.0 
4.08637 3.98671 0.0 
8.1554 7.24604 0.0 
6.92615 1.74547 0.0 
4.00432 3.99827 0.0 
4.88519 3.99424 0.0 
3.94279 3.92351 0.0 
6.36787 6.25223 0.0 
8.95718 1.6157 0.0 
13.3048 1.44272 0.0 
4.58487 3.99356 0.0 
4.21577 4.21046 0.0 
4.0911 3.98345 0.0 
4.14295 3.97632 0.0 
4.52808 4.06447 0.0 
8.87792 8 0.0 
4.28634 4.00185 0.0 
4.64894 4.05195 0.0 
5.0218 3.98124 0.0 
4.69077 3.98302 0.0 
3.98577 3.98747 0.0 
4.0766 3.95386 0.0 
6.13094 1.24083 0.0 
5.10311 4.0306 0.0 
4.05073 3.98232 0.0 
4.54162 4.05023 0.0 
4.06164 3.97511 0.0 
4.83152 4.05919 0.0 
4.10808 3.96074 0.0 
4.08645 3.96932 0.0 
4.0752 3.94387 0.0 
3.98027 4.05285 0.0 
3.48581 8 0.0 
8.14523 2.71617 0.0 
4.8885 4.0206 0.0 
4.19845 3.95661 0.0 
4.0383 3.95899 0.0 
10.8771 5.0637 0.0 
7.33243 1.39436 0.0 
4.22898 4.08419 0.0 
4.04077 3.99338 0.0 
4.37392 4.08534 0.0 
4.57904 3.97918 0.0 
12.0974 7.0521 0.0 
4.10231 3.92419 0.0 
10.1576 0.988131 0.0 
13.1066 7.48347 0.0 
3.59424 3.59629 0.0 
3.93707 4.10317 0.0 
4.82406 4.03025 0.0 
[...]
<PointData>
  <DataArray type = "Float64" Name="Vitesse" NumberOfComponents="3" format="ascii">
1 0 0.0 
1.0005 0 0.0 
0.999703 0 0.0 
1 0 0.0 
1.03107 0.17244 0.0 
1.0076 -0.00782001 0.0 
0.999152 7.70194e-05 0.0 
0.000957012 -0.000115882 0.0 
0.622569 -0.0816635 0.0 
1.05507 -0.244649 0.0 
0.155738 0.00304666 0.0 
-1.89835e-252 -2.86806e-253 0.0 
-2.90435e-13 -3.25784e-14 0.0 
0.0345941 0.000228354 0.0 
0.646497 -0.057395 0.0 
0.999637 -0.000158208 0.0 
0.340862 0.0284915 0.0 
1.06421 -0.0799629 0.0 
-3.35468e-264 1.60043e-264 0.0 
0.999655 -0.000701739 0.0 
0 0 0.0 
0.128726 0.0148371 0.0 
0.949638 0.0975627 0.0 
0.878541 -0.034726 0.0 
0.0498969 0.000785629 0.0 
5.74088e-254 -1.9612e-255 0.0 
-2.78172e-229 -4.20267e-230 0.0 
0.882385 0.245547 0.0 
0.428229 -0.00292815 0.0 
0.201244 -0.12246 0.0 
0.72911 0.348817 0.0 
0 0 0.0 
0 0 0.0 
1.00354 0.00140574 0.0 
0.068989 -0.00668741 0.0 
0.376758 -0.0336184 0.0 
-1.66964e-264 7.96542e-265 0.0 
0 0 0.0 
0 0 0.0 
0 0 0.0 
0.984335 0.063738 0.0 
0.999529 0.000304365 0.0 
0.00409822 0.000424869 0.0 
8.57736e-06 2.84942e-07 0.0 
4.63356e-07 1.2778e-07 0.0 
0.0383745 0.00178114 0.0 
0.0168157 -0.00099901 0.0 
0.763935 -0.0377906 0.0 
0 0 0.0 
1.01156 -0.00608873 0.0 
0.00714177 -0.000690897 0.0 
0.570066 0.0732081 0.0 
0.403057 0.031901 0.0 
0.00936512 0.000241398 0.0 
1.02132 -0.235784 0.0 
0.999938 0.00286418 0.0 
0.0677999 0.000962728 0.0 
0.836499 0.360385 0.0 
0.00973235 -0.00122431 0.0 
0.256655 0.00324175 0.0 
0.151911 0.00839915 0.0 
0.999711 0 0.0 
1.01045 0.000134434 0.0 
0.00729052 0.000554751 0.0 
0.0243703 -0.00233181 0.0 
0.0423195 -0.00629253 0.0 
1.54378e-61 1.96208e-61 0.0 
0.309937 0.0150968 0.0 
0 0 0.0 
3.50907e-12 6.89734e-13 0.0 
0.0417491 0.00282937 0.0 
1 0 0.0 
1.06796 0.117834 0.0 
0.869375 0.350406 0.0 
1.00875 -0.000666822 0.0 
0 0 0.0 
0.013811 0.000287858 0.0 
1.00257 -0.0461379 0.0 
0.0684929 -0.0104082 0.0 
0.396628 -0.0162676 0.0 
0.977469 -0.212859 0.0 
0.025024 -0.0047111 0.0 
1.00029 -0.000186793 0.0 
0.0115585 0.000649608 0.0 
0.999701 5.888e-05 0.0 
1.15353e-05 -1.34443e-06 0.0 
0.253649 0.0719244 0.0 
0.671459 -0.0810747 0.0 
0.219895 -0.00167843 0.0 
0.00271488 -0.000466296 0.0 
0.688575 0.287919 0.0 
0.86764 0.0333916 0.0 
0.70213 0.179501 0.0 
0.870717 0.0510369 0.0 
0.304499 0.0280212 0.0 
0 0 0.0 
0.0148032 -0.00124426 0.0 
1.0134 -0.00824267 0.0 
0.0707421 -0.0146389 0.0 
0.0629588 -0.00934201 0.0 
1.00718 0 0.0 
0.0113624 0.000530868 0.0 
0 0 0.0 
1.00541 0 0.0 
0.0203019 0.000488553 0.0 
1.0013 -0.00228063 0.0 
0.999745 0.000155472 0.0 
1.00485 -0.000514694 0.0 
1.00241 0.000670925 0.0 
0.0844281 0.0168834 0.0 
0.274603 0.0110529 0.0 
0.794645 -0.130119 0.0 
1.0082 -0.00157469 0.0 
0.119657 -0.012039 0.0 
-2.07181e-279 1.87548e-280 0.0 
0.0038242 -0.000399779 0.0 
0.549012 0.0318921 0.0 
0.00923605 0.000870777 0.0 
0.0298618 -0.0140925 0.0 
0.348765 0.00385767 0.0 
0.346116 0.170302 0.0 
0.00918045 5.64347e-05 0.0 
1.01018 0.00201337 0.0 
0.922957 -0.266146 0.0 
0.184106 0.0211139 0.0 
0.991401 0.0113926 0.0 
0.348008 0.00718443 0.0 
0.0107635 0.000241791 0.0 
1.00764 0 0.0 
0.719148 0.145541 0.0 
0.60976 0.162491 0.0 
0.436474 0.107539 0.0 
1.01118 0.0125418 0.0 
0.344632 0.0153538 0.0 
1.00601 0 0.0 
0.20202 -0.02672 0.0 
0.26025 0.0110976 0.0 
0.757406 -0.0414252 0.0 
1.00233 0.00171551 0.0 
0.853158 0.168318 0.0 
0.610691 -0.0205738 0.0 
0.249452 -0.0191796 0.0 
0 0 0.0 
1.00826 0 0.0 
0.832917 0.0362463 0.0 
0.122756 0.0193519 0.0 
1.00008 -0.000757221 0.0 
0.215441 0.0105394 0.0 
0.00922645 0.000615038 0.0 
0 0 0.0 
0.00705933 -0.000250211 0.0 
0.455087 0.0118659 0.0 
0.581074 0.0822095 0.0 
0.197929 -0.29318 0.0 
1.06947e-08 -1.88817e-11 0.0 
0.164752 -0.0142488 0.0 
1.00077 -0.003939 0.0 
0 0 0.0 
0.999631 0.00299527 0.0 
1.00769 -0.00935337 0.0 
0.73276 0.333463 0.0 
0.0954737 -0.0109743 0.0 
0.460611 0.0246878 0.0 
0.559192 0.144627 0.0 
0.520005 -0.0184152 0.0 
0.513233 -0.0234041 0.0 
1.0079 -0.000563742 0.0 
0 0 0.0 
1.00792 0 0.0 
1.06228 -0.192472 0.0 
0 0 0.0 
0 0 0.0 
0 0 0.0 
1.08354 0.207149 0.0 
0.148605 -0.0212526 0.0 
0.00712076 0.000126855 0.0 
0.509862 0.0666947 0.0 
0.222446 0.0262073 0.0 
0.80364 0.165466 0.0 
1 0 0.0 
0.355744 -0.00312978 0.0 
0.0130326 0.000429006 0.0 
0.761392 0.106648 0.0 
0.232641 -0.00820589 0.0 
0.0174078 -0.038457 0.0 
0.512105 -0.000341294 0.0 
0.369034 0.0272701 0.0 
0.0200064 -0.00549819 0.0 
0.088011 0.00467032 0.0 
1.06054 -0.227514 0.0 
0.992951 -0.00155359 0.0 
1.09316 0.185128 0.0 
1.00884 0.10094 0.0 
0.134363 0.00550965 0.0 
0.000175737 -2.98125e-05 0.0 
1.01883 -0.0780097 0.0 
0.465106 -0.036734 0.0 
0.678804 0.0264136 0.0 
0.7539 -0.101872 0.0 
1.05456 -0.134156 0.0 
0.825103 0.225233 0.0 
0.707509 0.0975648 0.0 
0.0313386 0.0023667 0.0 
0 0 0.0 
0 0 0.0 
0 0 0.0 
0 0 0.0 
0.397194 -0.0102556 0.0 
0.283803 0.048045 0.0 
0.00922283 0.000548333 0.0 
0.370792 0.0475914 0.0 
0 0 0.0 
0 0 0.0 
0.79786 -0.105076 0.0 
0.188908 -0.00638252 0.0 
0.743053 -0.133956 0.0 
1.00114 0.000803271 0.0 
5.28491e-06 -2.19195e-07 0.0 
0.446616 0.0406857 0.0 
0.00432967 0.000517183 0.0 
0 0 0.0 
0.720387 -0.1113 0.0 
0.0390679 0.000320674 0.0 
0.775696 -0.0898936 0.0 
1.08389 -0.18338 0.0 
0 0 0.0 
0.915694 -0.131246 0.0 
0.0176956 0.00124857 0.0 
0.424053 0.00276301 0.0 
-1.35379e-83 1.14341e-84 0.0 
0.778293 0.264308 0.0 
0.871522 -0.281923 0.0 
0.507444 0.0485542 0.0 
0.0644221 -0.0177246 0.0 
1.01541 -0.0048337 0.0 
0.66247 0.156831 0.0 
0.564678 0.03631 0.0 
0.000112274 1.64573e-05 0.0 
0.0316452 -0.00176906 0.0 
1.06917 0.191692 0.0 
1.10884 0.168601 0.0 
0.724892 0.122906 0.0 
0.532319 0.0153009 0.0 
0.0175434 -0.00124968 0.0 
1.00841 -0.00838698 0.0 
0.107903 -0.00102663 0.0 
0.674286 0.10105 0.0 
0.722475 0.157598 0.0 
0.919309 -0.194354 0.0 
0.999946 0.000365391 0.0 
0.309674 -0.00134315 0.0 
0.00142871 0.000154014 0.0 
0.934175 -0.0575134 0.0 
0.793487 -0.00932354 0.0 
0.999883 0.00115014 0.0 
0.536699 0.00264742 0.0 
0.493938 -0.100162 0.0 
-1.00256e-201 -3.51756e-203 0.0 
0.449856 0.0290033 0.0 
0 0 0.0 
0.0909637 0.0606925 0.0 
0.112163 -0.000858934 0.0 
1.00705 -0.00551051 0.0 
0 0 0.0 
0.736909 -0.0380578 0.0 
0.0141395 0.000774597 0.0 
7.46095e-05 -4.66468e-06 0.0 
0.0370833 0.000820515 0.0 
0.0793606 -0.0141177 0.0 
0.0235435 -0.00487643 0.0 
0.763001 0.329492 0.0 
-3.998e-14 -6.21949e-15 0.0 
0.0609469 0.0217642 0.0 
1.06018 -0.0371838 0.0 
0.999199 0.000995293 0.0 
0 0 0.0 
0.00189889 -0.000289122 0.0 
0.745825 -0.0510652 0.0 
0.40584 -0.0272255 0.0 
1.0028 0.00185295 0.0 
0.00923191 0.000250642 0.0 
0 0 0.0 
0.208017 0.0158078 0.0 
0.323435 0.00354643 0.0 
1.05449 -0.249233 0.0 
1.09665e-08 -6.11041e-10 0.0 
1.00845 -0.000403983 0.0 
0.611022 0.306279 0.0 
0.683323 0.0133984 0.0 
1.00834 0.0012014 0.0 
0.0890611 -0.00949148 0.0 
0.227295 0.00234278 0.0 
0.991065 -0.00347884 0.0 
0.939818 0.0766437 0.0 
0.947274 -0.0523402 0.0 
0.160681 -0.00300187 0.0 
0.00922479 0.00076035 0.0 
0.839552 0.300287 0.0 
1.00004 -0.000132493 0.0 
0 0 0.0 
0.0934811 -0.00786531 0.0 
0 0 0.0 
7.22453e-06 -3.24738e-07 0.0 
1.00048 -0.000450214 0.0 
0.00620827 -0.0100618 0.0 
0.00477662 0.00030342 0.0 
1.00194 -0.000357971 0.0 
0.395803 0.0227853 0.0 
1.00267 -0.00122838 0.0 
1.00399 0.000420762 0.0 
0.5504 -0.010579 0.0 
0.197104 0.0787498 0.0 
2.66068e-70 1.21724e-70 0.0 
1.00809 -0.000268046 0.0 
0.604565 0.337703 0.0 
0.389775 -0.040001 0.0 
0.806148 0.251547 0.0 
0.0076704 -0.000726264 0.0 
0.877478 0.171874 0.0 
0.357161 0.184037 0.0 
0.00525112 0.000723052 0.0 
0.478886 -0.44496 0.0 
1.0116 -0.0450077 0.0 
0.772114 -0.0832258 0.0 
0.002846 -0.000226959 0.0 
0.901554 -0.0105285 0.0 
0.999693 1.10217e-07 0.0 
0.0152233 0.00106829 0.0 
0.183773 -0.00735494 0.0 
1.00016 -0.00471991 0.0 
0.0453406 -0.00706568 0.0 
0.00714076 0.000311727 0.0 
0.398716 -0.03051 0.0 
1.00143 0.000672922 0.0 
1.00934 -0.00745217 0.0 
0.460925 -0.0127243 0.0 
0.132666 -0.0293748 0.0 
0.379339 -0.00633439 0.0 
1.00861 0.00667248 0.0 
0.0315537 -6.76574e-05 0.0 
0.262455 -0.0233415 0.0 
0.00147797 -0.000136081 0.0 
1.00079 0.000392635 0.0 
4.20003e-135 -2.57437e-136 0.0 
0.120805 -0.224688 0.0 
1.06294 -0.103568 0.0 
0.464245 -0.00591447 0.0 
0.00525927 0.000508306 0.0 
0.00360987 -0.000625691 0.0 
0.593782 -0.345104 0.0 
0.869037 -0.0974396 0.0 
0.0994567 0.0110018 0.0 
0 0 0.0 
0.0108487 0.00014984 0.0 
0.221316 -0.0166382 0.0 
0 0 0.0 
1.00422 0.00412122 0.0 
0.0298221 -0.00129423 0.0 
0 0 0.0 
0.0493119 -0.117205 0.0 
0.769428 -0.0140634 0.0 
0 0 0.0 
1.03347 -0.0382469 0.0 
1.01031 0.00264523 0.0 
0.0071201 0.000344579 0.0 
0.10307 0.0218308 0.0 
0.743255 -0.0645879 0.0 
0.965827 0.0734098 0.0 
1e-307 1e-307 0.0 
1.01438 -0.00713051 0.0 
0.843441 -0.00814797 0.0 
0.0146338 -0.00262364 0.0 
0.260736 -0.039463 0.0 
0 0 0.0 
0.0103375 -0.00071118 0.0 
0.639102 0.0897493 0.0 
-2.77537e-43 -1.87088e-44 0.0 
1.83645e-07 1.41653e-08 0.0 
0.81201 0.0787887 0.0 
0.122098 0.0114247 0.0 
0.0126343 0.000542091 0.0 
0.389325 0.0347042 0.0 
0 0 0.0 
0.266744 -0.0294978 0.0 
0.584927 0.00066288 0.0 
0.0537595 -0.00194462 0.0 
1.02891 0.0291998 0.0 
1.01827 -0.00367284 0.0 
1.03464 0.0180613 0.0 
1.00379 -0.000724202 0.0 
-5.01228e-269 2.39123e-269 0.0 
1.00977 0.00264692 0.0 
1.02259 -0.185045 0.0 
0.166719 0.0444683 0.0 
1.00795 0.00043726 0.0 
0.00503983 0.000124955 0.0 
0 0 0.0 
0.312024 0.267366 0.0 
0.00622391 0.000918792 0.0 
0 0 0.0 
0.80176 -0.120377 0.0 
0.986421 0.00262983 0.0 
0.00616883 0.00084147 0.0 
0.792091 0.343729 0.0 
0.00818751 0.000645562 0.0 
0.0856512 0.0121386 0.0 
0.585243 0.0714386 0.0 
0.474626 0.0420744 0.0 
0.652019 0.0602284 0.0 
0.0264542 0.00110927 0.0 
0.00190152 -0.000581143 0.0 
0.630838 -0.0745612 0.0 
0.00581244 -0.000909072 0.0 
0.608755 0.317358 0.0 
0.185093 -0.0183644 0.0 
0.505871 0.0382188 0.0 
0.520372 0.082096 0.0 
-4.63071e-57 -3.92139e-58 0.0 
0.0373617 0.00179979 0.0 
0 0 0.0 
1.01041 0.00396572 0.0 
6.92162e-06 -3.54811e-07 0.0 
0 0 0.0 
0.0341725 -0.000279244 0.0 
-1.15334e-20 8.12609e-22 0.0 
0.0130872 -5.40759e-05 0.0 
0.992721 0.0525186 0.0 
0 0 0.0 
1.00507 -0.0018865 0.0 
1.00921 0.00179754 0.0 
0 0 0.0 
-2.02091e-18 -1.40249e-19 0.0 
0.878839 -0.132439 0.0 
1.0104 -0.00311611 0.0 
1.00475 0.00332539 0.0 
1.0005 0.00038628 0.0 
2.36196e-78 2.03963e-79 0.0 
1.08972 0.116076 0.0 
0 0 0.0 
0 0 0.0 
0.0387528 -0.00253845 0.0 
1.00331 0 0.0 
0 0 0.0 
0.00912522 -0.00106235 0.0 
0.182139 0.0241096 0.0 
0.0139484 0.000502359 0.0 
0.569969 -0.271631 0.0 
0.801249 -0.139955 0.0 
1.00927 0.000171484 0.0 
0.161034 -0.0165957 0.0 
0 0 0.0 
0 0 0.0 
-2.59464e-80 3.1983e-81 0.0 
0.205818 -0.0197126 0.0 
0.354936 -0.0332931 0.0 
0.0970671 -0.00713284 0.0 
1.01288 -0.194202 0.0 
0.760441 0.199044 0.0 
1.00539 0 0.0 
1.00973 0.00598079 0.0 
0.00227788 -0.000178618 0.0 
0.27409 -0.00660079 0.0 
0.944854 -0.279083 0.0 
0.998059 6.01195e-05 0.0 
1.00824 0.00181497 0.0 
0.590043 0.0590463 0.0 
0 0 0.0 
0.355575 0.00372624 0.0 
1.11896e-30 1.49856e-31 0.0 
0.999704 -0.000147602 0.0 
1.08606 -0.166338 0.0 
1.00273 0.00137142 0.0 
0.999692 -1.69032e-05 0.0 
0.982247 -0.0254133 0.0 
0.875498 0.116147 0.0 
0.00338053 -0.000582643 0.0 
1.00035 0.000448557 0.0 
0.0948187 -0.149743 0.0 
0.276898 0.0110994 0.0 
0.310316 0.0216583 0.0 
0.193239 -0.00884322 0.0 
0.999931 -0.000231095 0.0 
0.00162983 -0.000105511 0.0 
0.35303 -0.0266437 0.0 
0.39988 0.0342502 0.0 
1.01174 -0.00717002 0.0 
0 0 0.0 
0.0780062 -0.0193537 0.0 
0.504742 0.0113632 0.0 
0.252691 -0.000158972 0.0 
0 0 0.0 
0.794453 0.010396 0.0 
0.707623 -0.37642 0.0 
0.100768 -0.00113112 0.0 
1.07423 -0.0983051 0.0 
1.01335 0.0257656 0.0 
1.05614 0.00355382 0.0 
0.853335 0.000105252 0.0 
0.272031 0.0261816 0.0 
1.00266 0 0.0 
0.656392 -0.284346 0.0 
0 0 0.0 
0.00192792 -0.000206325 0.0 
0.121779 0.0100072 0.0 
0.0154743 0.00121908 0.0 
0.467092 0.0362953 0.0 
0.999995 -0.000263661 0.0 
0.999471 -3.41427e-05 0.0 
0.843466 -0.0927725 0.0 
0.715212 -0.265888 0.0 
1.00002 0.000643292 0.0 
0.441324 0.00998266 0.0 
0 0 0.0 
1.00728 0.00182152 0.0 
0.239942 0.00908722 0.0 
1.00837 0.00386472 0.0 
1.02877e-08 2.24668e-09 0.0 
0 0 0.0 
1.00086 0.000482883 0.0 
0.717479 0.338665 0.0 
0.525314 -0.0572529 0.0 
0.00726607 0.00046441 0.0 
0.648808 0.258027 0.0 
0.712866 0.272508 0.0 
0.481236 -0.0251922 0.0 
0.0263866 0.000551559 0.0 
0.30532 0.0285028 0.0 
0.877493 -0.108215 0.0 
-4.25347e-26 -5.43678e-26 0.0 
0 0 0.0 
0.768518 0.120933 0.0 
0.492557 0.0958876 0.0 
0.0091354 0.000926868 0.0 
0 0 0.0 
0.235025 0.00625399 0.0 
0.317793 -0.00497302 0.0 
0.0165324 0.000556318 0.0 
0.456225 0.0252502 0.0 
5.55529e-62 4.16889e-63 0.0 
0.677784 0.243148 0.0 
-1.89342e-279 9.03299e-280 0.0 
1.00235 -0.0157639 0.0 
1.0011 0 0.0 
0 0 0.0 
0.00378028 -0.000571249 0.0 
0.710306 0.376839 0.0 
0.858805 0.153385 0.0 
-3.46326e-216 -8.66373e-217 0.0 
0 0 0.0 
0.0634702 0.0112317 0.0 
0 0 0.0 
0.0649463 -0.120457 0.0 
0.729204 0.309728 0.0 
1.00034 -0.000256587 0.0 
0.106039 0.0192146 0.0 
0.000595365 -4.27342e-05 0.0 
0 0 0.0 
0.873942 0.0874587 0.0 
0.000101481 3.19269e-06 0.0 
0.607695 -0.290227 0.0 
0.998861 0.000385746 0.0 
1.01991 -0.251728 0.0 
0.0149603 -0.00404856 0.0 
0 0 0.0 
0 0 0.0 
0.074967 -0.0105328 0.0 
1.00476 0.0171594 0.0 
1.00181 -0.00263554 0.0 
0.554177 -0.0635042 0.0 
0.537289 0.0994012 0.0 
1.00838 5.75062e-05 0.0 
0 0 0.0 
1.02584 -0.289627 0.0 
4.03979e-76 2.69214e-76 0.0 
0.999514 0.000160082 0.0 
0.424902 -0.122064 0.0 
0.0269906 -0.00116746 0.0 
0 0 0.0 
1.01014 -0.00883527 0.0 
0.580403 -0.427621 0.0 
1.31693e-32 6.84311e-33 0.0 
1.0003 0 0.0 
0.0505159 0.0057444 0.0 
0.449121 -0.098847 0.0 
0.541551 -0.0324441 0.0 
0.850522 -0.200792 0.0 
0.999659 6.87161e-05 0.0 
-5.33128e-15 -3.86036e-16 0.0 
-2.34526e-42 1.84781e-43 0.0 
0.723147 0.0544752 0.0 
0.49514 0.107876 0.0 
0.319918 -0.0627738 0.0 
0.0671841 -0.00134085 0.0 
0.782575 0.367888 0.0 
0.836161 0.138847 0.0 
1.00975 0.00535835 0.0 
0.476727 -0.0630159 0.0 
1.08065 -0.049518 0.0 
0.0115255 -0.000994584 0.0 
0 0 0.0 
0.758947 -0.10458 0.0 
0.471756 -0.0833687 0.0 
0.0117443 0.00127865 0.0 
0.210873 -0.00017537 0.0 
0.460828 -0.0432459 0.0 
1 0 0.0 
3.93682e-07 -2.01079e-08 0.0 
0.760636 0.373686 0.0 
0 0 0.0 
0 0 0.0 
1.07616 0.178147 0.0 
0.554858 0.282303 0.0 
2.08117e-73 -3.82526e-75 0.0 
1.01002 0.00561933 0.0 
1.00918 0 0.0 
0.749949 0.278689 0.0 
0 0 0.0 
0.999693 2.10037e-05 0.0 
0.933413 -0.0607195 0.0 
-9.4399e-221 -2.36149e-221 0.0 
0.992304 -0.00870192 0.0 
0.151274 0.0180513 0.0 
1.05089 0.0174208 0.0 
1.00472 0 0.0 
2.24631e-137 -9.99986e-139 0.0 
0.790319 0.320281 0.0 
1.00001 -0.000287011 0.0 
0.276501 -0.0321367 0.0 
5.2667e-07 1.74961e-08 0.0 
0.00233841 -0.000161217 0.0 
0.490815 -0.0494666 0.0 
0.770309 0.365925 0.0 
0.747776 0.064652 0.0 
0.32045 0.0631655 0.0 
1.00088 0.00236797 0.0 
0.864892 0.355422 0.0 
0.960513 -0.0268895 0.0 
0.490535 -0.171001 0.0 
0.816443 0.357691 0.0 
-2.71256e-17 1.64901e-17 0.0 
1.0089 -0.00623897 0.0 
0.943184 -0.335044 0.0 
0.573493 -0.0610554 0.0 
0.746026 -0.0904503 0.0 
0.80613 -0.0813722 0.0 
0 0 0.0 
0 0 0.0 
0.143741 -0.0191699 0.0 
0.325169 0.044776 0.0 
1.05168 0.102831 0.0 
0.71614 0.359843 0.0 
0 0 0.0 
0.998548 0.000686352 0.0 
0.292452 0.00229773 0.0 
0.00011157 -3.21454e-06 0.0 
0.905105 0.0285668 0.0 
0.195648 -0.0206056 0.0 
0.279255 0.019654 0.0 
0.234779 -0.000548694 0.0 
0.046843 -0.00997181 0.0 
0.183628 -0.237802 0.0 
-1.01913e-111 4.79273e-113 0.0 
0.0121969 0.000449444 0.0 
0.412856 -0.00464336 0.0 
0.810724 0.128088 0.0 
0.0157484 0.000738981 0.0 
0.13096 0.00849444 0.0 
0.866252 0.097239 0.0 
0.454043 -0.0475799 0.0 
0.345651 -0.0227623 0.0 
1.00822 -0.000847488 0.0 
0.864557 0.0668285 0.0 
1.00814 -0.00274948 0.0 
0.780994 0.137636 0.0 
1.00312 0.00116569 0.0 
-1.31158e-46 9.12159e-48 0.0 
0.0223921 0.000969524 0.0 
0.0146919 0.000874563 0.0 
0.00967477 -0.00122599 0.0 
0.800381 0.0744482 0.0 
1.00109 0 0.0 
0.763501 0.306841 0.0 
0.695499 -0.446906 0.0 
0.768242 0.0887208 0.0 
0.999318 0.000129402 0.0 
1.00817 0 0.0 
0 0 0.0 
0.216224 -0.00247019 0.0 
0.159314 0.00584144 0.0 
1.09585 -0.122485 0.0 
0.771136 -0.288791 0.0 
0.111008 -0.00832452 0.0 
0.685991 -0.180576 0.0 
1.00318 -0.000654402 0.0 
0.303908 0.0394615 0.0 
0.404035 -0.0031477 0.0 
0.391173 -0.0189431 0.0 
1.00999 -0.000682769 0.0 
0.173178 0.0128659 0.0 
0.640805 0.342622 0.0 
0.864057 -0.0520283 0.0 
0.85999 -0.1425 0.0 
0.0190495 0.000843411 0.0 
1.01039 -0.00142135 0.0 
0.59203 0.0825055 0.0 
0.043896 -0.0166425 0.0 
0.250591 -0.0128365 0.0 
0 0 0.0 
0.427582 0.004597 0.0 
0.0101921 0.000642678 0.0 
0.327337 -0.0214978 0.0 
0 0 0.0 
0.186225 0.0118221 0.0 
3.23884e-07 1.71004e-08 0.0 
1.8617e-243 1.98847e-246 0.0 
-2.66434e-22 1.61969e-22 0.0 
0.0221236 -0.0016326 0.0 
0.292786 -0.0199456 0.0 
0.86276 0.258637 0.0 
4.94777e-09 -1.79512e-10 0.0 
0 0 0.0 
0 0 0.0 
4.70536e-64 -1.00051e-65 0.0 
0.0144941 -4.8632e-05 0.0 
0.590209 -0.226464 0.0 
0.00576756 0.000262847 0.0 
1.02775 -0.0159818 0.0 
0 0 0.0 
0.89189 -0.299526 0.0 
0.55614 0.0626773 0.0 
0.967494 0.305926 0.0 
0.051105 0.0303512 0.0 
0.0368361 0.00115784 0.0 
0.268844 -0.00140008 0.0 
2.11611e-13 3.62221e-14 0.0 
0 0 0.0 
1.09782 -0.104207 0.0 
0.469436 -0.0094429 0.0 
0.139268 -0.00881459 0.0 
0 0 0.0 
1.0099 0.00311109 0.0 
1.00487 -0.265982 0.0 
0.00461009 0.000351379 0.0 
0.00144565 -8.11033e-05 0.0 
0.0114647 -0.00123811 0.0 
5.06229e-06 8.30176e-06 0.0 
0.999695 3.63989e-06 0.0 
1.00051 0.00516343 0.0 
1.01841 -0.301437 0.0 
0.314022 -0.0133951 0.0 
0.941527 -0.100657 0.0 
0.999857 -0.00641822 0.0 
1.00973 -0.00428614 0.0 
0.354709 -0.00386458 0.0 
1.012 -0.294233 0.0 
0.753706 0.220979 0.0 
0.237674 0.0189013 0.0 
1.06138 0.219885 0.0 
0.583133 0.345069 0.0 
1.02462 0.0238935 0.0 
0.0742185 -4.35788e-05 0.0 
1.00698 0.00562299 0.0 
0.196065 -0.00818154 0.0 
0.00459423 0.000344961 0.0 
0.999514 -0.00020394 0.0 
-2.15433e-172 -1.09754e-173 0.0 
0 0 0.0 
0.319841 0.0762846 0.0 
0.00344836 0.000260385 0.0 
0 0 0.0 
0.129661 -0.00920828 0.0 
-1.97671e-11 -7.48555e-12 0.0 
0.99759 0.00654927 0.0 
0.0184835 -0.00515515 0.0 
1.01011 0.256086 0.0 
0.726498 -0.0647235 0.0 
0 0 0.0 
0 0 0.0 
0.999862 0.00141946 0.0 
-1.72649e-26 4.92741e-27 0.0 
1.05583 0.0955377 0.0 
0.357296 -0.353267 0.0 
0.227206 -0.00275732 0.0 
1.0044 0.00154797 0.0 
0.0647004 0.014585 0.0 
0.608153 -0.462537 0.0 
0.0107649 -0.00138194 0.0 
0.00634691 -0.000373699 0.0 
0.728141 0.192675 0.0 
1.0091 -0.000839347 0.0 
0.679282 0.200821 0.0 
1.00806 0 0.0 
0.0254033 -0.00161416 0.0 
0.00498842 -0.00072731 0.0 
0 0 0.0 
0.883311 0.144734 0.0 
1.00171 0.0131257 0.0 
0.00141873 -0.000194344 0.0 
1.00649 -0.00214677 0.0 
-5.80853e-31 -1.14179e-31 0.0 
1.03625 -0.272567 0.0 
0.005411 -8.92368e-05 0.0 
0.00602846 -0.000938019 0.0 
0 0 0.0 
1.0019 -0.0023392 0.0 
0.0368513 -0.0152689 0.0 
1.07275 0.202512 0.0 
0.248681 -0.00399197 0.0 
1.00591 0.000721546 0.0 
1.00951 -0.00483439 0.0 
0.448153 -0.0098486 0.0 
0.999897 4.12269e-05 0.0 
0.00120815 -0.00028259 0.0 
0 0 0.0 
1.03398 0.261347 0.0 
-2.42048e-236 1.15475e-236 0.0 
7.35901e-05 -4.72918e-07 0.0 
1.00782 -0.00162042 0.0 
0.899466 0.0833483 0.0 
0.84602 0.173204 0.0 
1.00523 -0.00703324 0.0 
0.585426 -0.0715361 0.0 
-4.07988e-50 2.3423e-51 0.0 
1.05482 0.0105657 0.0 
0.999842 -0.000632233 0.0 
1.09641 -0.0752181 0.0 
2.55076e-06 -6.15051e-07 0.0 
1.00711 -0.000854275 0.0 
0 0 0.0 
0.00703604 0.000182304 0.0 
1.00033 0.000317242 0.0 
1.00062 -0.00178148 0.0 
1.00856 0.000380889 0.0 
-1.56985e-13 -2.78469e-14 0.0 
0 0 0.0 
0.00516151 0.0003339 0.0 
0.186654 -0.0354781 0.0 
0.0929253 -0.0105314 0.0 
1.00062 0 0.0 
1.09398 -0.100213 0.0 
0.941781 -0.359719 0.0 
1.00137 0.00606731 0.0 
1.0007 0.000689609 0.0 
0.875742 -0.0559636 0.0 
0.942903 0.0100135 0.0 
0.0490772 -0.00332112 0.0 
0 0 0.0 
0 0 0.0 
1.42411e-07 1.23233e-07 0.0 
1.00012 0.000430798 0.0 
0.056286 0.0151015 0.0 
0.986645 -0.0216537 0.0 
1.00598 -0.00729979 0.0 
0.0765451 -0.00651648 0.0 