<VTKFile type="UnstructuredGrid" version="0.1" byte_order="LittleEndian">
  <UnstructuredGrid>
    <Piece NumberOfPoints="12872" NumberOfCells="25583">
      <Points>
        <DataArray type = "Float64" NumberOfComponents="3" format="ascii">
0 0 0.0 
14 0 0.0 
14 8 0.0 
0 8 0.0 
4.16782 4.09801 0.0 
3.9956 4.03796 0.0 
3.87647 4.36416 0.0 
4.24573 4.11619 0.0 
4.09208 3.95602 0.0 
7.40984 3.33572 0.0 
4.33592 4.0755 0.0 
4.79014 3.98914 0.0 
4.30101 3.96824 0.0 
3.9628 1.8174 0.0 
3.96554 4.00011 0.0 
0.374979 4.67127 0.0 
4.01887 4.0029 0.0 
4.76351 4.03759 0.0 
4.05779 3.94742 0.0 
13.3549 8 0.0 
4.01323 3.99894 0.0 
3.97807 4.03955 0.0 
4.25007 4.10489 0.0 
5.05875 3.96884 0.0 
4.96709 3.98166 0.0 
4.74227 3.98731 0.0 
4.30177 4.08025 0.0 
4.00962 4.08349 0.0 
9.28793 6.2702 0.0 
4.0118 4.01608 0.0 
4.06645 4.03799 0.0 
4.36723 4.05555 0.0 
8.39961 2.63193 0.0 
4.88044 0 0.0 
4.17778 3.99596 0.0 
4.88701 4.02124 0.0 
4.00012 4.00174 0.0 
4.17759 3.97818 0.0 
4.09533 4.03459 0.0 
4.00922 3.99881 0.0 
4.06234 3.9498 0.0 
5.46391 0 0.0 
4.19743 3.96599 0.0 
4.86904 3.99131 0.0 
10.3597 2.73005 0.0 
9.27307 3.72117 0.0 
4.90193 3.99446 0.0 
3.93682 3.99751 0.0 
4.11094 4.03801 0.0 
4.17813 3.96349 0.0 
4.77679 6.83218 0.0 
4.19353 4.07857 0.0 
4.65938 4.05113 0.0 
4.11365 4.05232 0.0 
3.99581 4.00545 0.0 
4.27205 4.06864 0.0 
2.65178 3.74538 0.0 
4.02815 4.04832 0.0 
4.71296 3.98549 0.0 
0 6.14366 0.0 
5.05394 3.98332 0.0 
4.02699 4.00513 0.0 
9.99449 1.23884 0.0 
4.04788 3.97401 0.0 
4.00128 3.99657 0.0 
4.96507 4.02144 0.0 
4.15252 3.96185 0.0 
9.48986 0.253823 0.0 
4.01647 3.99236 0.0 
4.9242 3.95988 0.0 
1.63427 7.45641 0.0 
4.55431 4.09639 0.0 
4.5589 3.97615 0.0 
4.0339 4.05256 0.0 
3.99523 3.95021 0.0 
4.0192 3.99331 0.0 
4.28398 4.089 0.0 
4.85394 4.02471 0.0 
4.97524 4.02614 0.0 
4.17785 3.95317 0.0 
5.00671 4.01055 0.0 
5.00785 4.00312 0.0 
10.8833 7.73481 0.0 
4.61365 3.98011 0.0 
14 6.11123 0.0 
2.524 2.40322 0.0 
3.99379 4.00703 0.0 
3.96293 3.99513 0.0 
4.61145 3.92413 0.0 
0.808626 5.25399 0.0 
4.69163 4.07246 0.0 
6.60052 7.75668 0.0 
4.42556 4.06814 0.0 
3.88293 4.06948 0.0 
3.98207 3.99993 0.0 
4.19776 3.93671 0.0 
4.25512 3.95107 0.0 
4.88821 4.02065 0.0 
4.70476 3.98554 0.0 
5.03684 4.01469 0.0 
4.30248 4.06809 0.0 
4.18442 4.04414 0.0 
4.95013 4.23385 0.0 
5.12699 3.90555 0.0 
5.41929 4.06199 0.0 
0.371987 0.577064 0.0 
14 5.21618 0.0 
4.40161 3.97173 0.0 
4.93467 3.99549 0.0 
4.1871 4.07564 0.0 
4.28749 4.07809 0.0 
3.94943 3.96456 0.0 
4.69086 3.98303 0.0 
4.76751 4.0543 0.0 
4.80536 4.01156 0.0 
4.04894 3.98467 0.0 
14 7.66915 0.0 
6.51914 5.28934 0.0 
4.35343 3.94951 0.0 
3.99922 3.99464 0.0 
9.03524 1.89505 0.0 
4.61101 4.05615 0.0 
4.82419 3.98993 0.0 
3.05817 4.59047 0.0 
4.34569 4.08404 0.0 
4.4527 4.1028 0.0 
4.37798 8 0.0 
4.12623 4.0709 0.0 
4.08373 4.05666 0.0 
4.09568 4.05562 0.0 
4.74642 3.98666 0.0 
4.30764 3.9683 0.0 
4.27852 0 0.0 
5.04845 4.04311 0.0 
4.29262 4.07791 0.0 
4.16625 4.06136 0.0 
4.59525 3.97962 0.0 
4.13434 4.07811 0.0 
4.25803 4.11093 0.0 
4.91106 4.08076 0.0 
5.47551 0.287738 0.0 
4.70266 8 0.0 
4.94528 3.99579 0.0 
9.55585 5.17537 0.0 
12.676 0.986025 0.0 
4.35017 3.94589 0.0 
4.21272 3.96592 0.0 
4.22225 3.98357 0.0 
4.36051 4.07919 0.0 
5.52872 3.97338 0.0 
4.1741 4.07586 0.0 
3.99623 4.0615 0.0 
4.01706 3.99618 0.0 
6.01463 5.26768 0.0 
4.22125 4.03864 0.0 
4.05749 3.97403 0.0 
4.09679 4.04328 0.0 
3.91267 2.38613 0.0 
4.02873 4.0411 0.0 
4.88146 4.04087 0.0 
4.83148 4.05918 0.0 
4.08859 4.05676 0.0 
4.0826 3.93583 0.0 
4.21584 4.21049 0.0 
4.93455 4.01364 0.0 
4.12124 3.98374 0.0 
8.14479 2.71554 0.0 
4.18143 3.96765 0.0 
4.17912 4.05461 0.0 
4.0383 3.95899 0.0 
4.24743 3.99271 0.0 
4.34993 4.09246 0.0 
4.99458 4.03862 0.0 
3.925 3.92575 0.0 
4.02244 4.02798 0.0 
4.1829 4.06659 0.0 
4.12635 4.07409 0.0 
0 1.4212 0.0 
5.012 4.10727 0.0 
3.87392 4.19363 0.0 
4.18679 4.08465 0.0 
4.55504 4.06085 0.0 
10.8765 5.06378 0.0 
5.16613 4.24223 0.0 
4.25777 4.07923 0.0 
4.9908 4.01037 0.0 
4.96347 3.98813 0.0 
4.0644 3.93891 0.0 
6.38499 3.86378 0.0 
4.16503 4.11076 0.0 
2.42546 8 0.0 
4.18236 3.96352 0.0 
4.5101 4.07628 0.0 
4.19206 3.91938 0.0 
4.24024 3.95811 0.0 
3.96023 4.01528 0.0 
4.09641 3.95124 0.0 
4.12454 3.92729 0.0 
4.08491 4.0641 0.0 
3.96293 4.03138 0.0 
3.97691 4.10047 0.0 
4.06298 3.99231 0.0 
4.35916 4.0592 0.0 
4.23768 4.04493 0.0 
8.95719 1.6157 0.0 
4.21125 3.95113 0.0 
3.99252 4.00665 0.0 
4.43083 3.97233 0.0 
4.17636 4.06982 0.0 
4.01378 4.004 0.0 
4.64076 4.06153 0.0 
3.94066 3.96869 0.0 
3.94287 3.92346 0.0 
3.95819 3.97698 0.0 
4.48026 4.07675 0.0 
4.84583 4.02682 0.0 
4.23165 4.07938 0.0 
13.3048 1.44272 0.0 
4.15636 4.04974 0.0 
3.95778 3.98461 0.0 
3.48581 8 0.0 
3.9419 3.97853 0.0 
4.16468 4.05878 0.0 
4.19018 4.05306 0.0 
4.10081 3.94382 0.0 
4.77892 4.03532 0.0 
4.66771 3.98279 0.0 
6.88398 4.79117 0.0 
3.99651 4.05409 0.0 
4.2284 4.07124 0.0 
4.22913 4.08121 0.0 
5.00368 4.02219 0.0 
3.81272 3.98979 0.0 
3.9771 4.03148 0.0 
5.10123 3.82604 0.0 
11.4717 0.893933 0.0 
4.58205 4.05701 0.0 
4.15561 4.10177 0.0 
4.18309 4.12442 0.0 
3.96476 4.03852 0.0 
4.35303 4.06185 0.0 
4.96464 4.00382 0.0 
3.98577 3.98747 0.0 
4.80054 4.03263 0.0 
3.96822 4.02719 0.0 
3.97233 4.04194 0.0 
3.98573 3.91699 0.0 
3.9905 4.00301 0.0 
4.39564 4.08373 0.0 
4.99559 3.98923 0.0 
4.20876 3.92492 0.0 
3.92251 4.00785 0.0 
4.66919 3.98389 0.0 
4.97729 4.01134 0.0 
4.96876 4.02824 0.0 
4.73179 4.04311 0.0 
5.15491 3.95658 0.0 
4.3089 4.04268 0.0 
4.05833 4.07445 0.0 
4.66028 4.05058 0.0 
4.2738 4.0402 0.0 
4.14583 4.0438 0.0 
3.94564 3.99975 0.0 
8.67743 7.6852 0.0 
4.00177 3.98992 0.0 
4.00612 4.04547 0.0 
5.0401 4.02083 0.0 
4.98371 4.01321 0.0 
4.07393 4.02262 0.0 
6.92617 1.74546 0.0 
3.87595 4.26381 0.0 
6.3759 3.32598 0.0 
11.7013 4.10211 0.0 
4.27554 4.05011 0.0 
4.89826 3.99322 0.0 
4.44959 3.97279 0.0 
4.1384 3.95607 0.0 
4.23878 3.96822 0.0 
6.60533 2.58049 0.0 
4.5533 4.04791 0.0 
4.72613 3.98537 0.0 
4.36894 4.08372 0.0 
4.05428 3.94079 0.0 
3.99158 4.00446 0.0 
7.04624 0.443875 0.0 
4.02341 4.03456 0.0 
4.15329 4.05791 0.0 
4.52724 7.41561 0.0 
5.05919 4.01855 0.0 
4.19845 3.95661 0.0 
4.38846 4.07639 0.0 
4.35803 3.96941 0.0 
4.22714 3.92146 0.0 
4.01247 3.98459 0.0 
6.36787 6.25219 0.0 
4.06452 3.97059 0.0 
7.87527 2.12451 0.0 
4.46546 4.83907 0.0 
6.13094 1.24083 0.0 
4.06103 3.9941 0.0 
5.23448 3.96737 0.0 
1.24078 0.550265 0.0 
4.35305 4.0885 0.0 
4.1457 3.89582 0.0 
2.38032 0.204862 0.0 
4.64855 4.052 0.0 
9.1005 7.43296 0.0 
10.1576 0.988131 0.0 
4.26148 3.94171 0.0 
4.15971 4.03211 0.0 
4.8525 4.00915 0.0 
4.13839 3.82519 0.0 
4.01517 4.03055 0.0 
4.14183 3.94415 0.0 
4.44931 4.05939 0.0 
5.30578 4.0099 0.0 
7.88738 5.26491 0.0 
4.32763 4.07854 0.0 
7.33243 1.39436 0.0 
3.99908 3.98836 0.0 
5.14793 4.17318 0.0 
4.12151 3.94609 0.0 
4.40716 4.06773 0.0 
3.99882 3.99972 0.0 
4.25503 4.0601 0.0 
4.81433 4.03157 0.0 
4.43104 3.97366 0.0 
4.53412 3.96445 0.0 
4.97222 4.02124 0.0 
3.54184 5.14224 0.0 
4.12673 3.95742 0.0 
4.11517 4.05302 0.0 
4.28637 4.00185 0.0 
4.2163 3.94824 0.0 
4.05073 3.98232 0.0 
4.22957 3.95099 0.0 
14 3.23017 0.0 
12.7915 5.45943 0.0 
5.1327 4.04445 0.0 
4.00328 4.00276 0.0 
12.0974 7.0521 0.0 
0.426015 3.14062 0.0 
4.01301 4.01816 0.0 
5.00675 4.02514 0.0 
4.2655 3.94563 0.0 
4.25263 4.07039 0.0 
4.87946 4.02042 0.0 
3.99014 3.98454 0.0 
4.12408 3.94161 0.0 
4.72837 4.04391 0.0 
5.30524 0.725734 0.0 
4.06093 3.97279 0.0 
4.66701 4.07141 0.0 
4.0089 4.00797 0.0 
4.08139 3.94144 0.0 
4.5079 4.06501 0.0 
4.03513 3.9876 0.0 
6.25111 4.08508 0.0 
3.97264 3.9433 0.0 
4.5559 4.05928 0.0 
9.97263 4.0835 0.0 
4.09332 3.97106 0.0 
4.39598 3.9708 0.0 
4.45729 4.04521 0.0 
4.09586 3.97143 0.0 
5.08168 4.0101 0.0 
4.47929 4.06619 0.0 
4.24579 4.08867 0.0 
4.51983 4.11882 0.0 
4.63166 3.98129 0.0 
3.99811 4.0003 0.0 
4.30211 3.98484 0.0 
4.3068 3.81539 0.0 
4.17983 4.0788 0.0 
4.11676 6.2698 0.0 
3.106 7.43579 0.0 
4.2489 4.09629 0.0 
5.06347 3.99507 0.0 
4.18539 4.05864 0.0 
4.2295 4.0772 0.0 
4.32398 4.05563 0.0 
5.08198 4.04957 0.0 
4.48337 3.97554 0.0 
5.02947 4.00625 0.0 
4.67377 4.04976 0.0 
4.45013 4.06564 0.0 
4.30767 4.06978 0.0 
6.89941 3.06672 0.0 
5.65078 1.49942 0.0 
4.05054 7.30988 0.0 
4.08583 4.02136 0.0 
4.42438 4.08084 0.0 
4.59911 1.31086 0.0 
4.39121 3.98306 0.0 
3.99883 4.01382 0.0 
4.03844 4.03316 0.0 
4.57915 4.04822 0.0 
4.08942 3.95104 0.0 
4.0419 3.96636 0.0 
4.87934 4.02183 0.0 
4.01165 4.04753 0.0 
6.28613 0.281141 0.0 
4.01818 3.98342 0.0 
4.20227 4.08039 0.0 
4.23985 4.08128 0.0 
4.06446 3.97187 0.0 
4.59396 4.05675 0.0 
4.07527 3.94387 0.0 
4.10203 3.95404 0.0 
0.318903 1.81332 0.0 
3.99752 4.02893 0.0 
4.8711 4.05387 0.0 
4.26259 4.0847 0.0 
4.15582 4.07076 0.0 
4.0018 3.99395 0.0 
5.02678 3.96802 0.0 
4.1339 4.047 0.0 
7.69612 2.66902 0.0 
4.34889 4.1205 0.0 
4.01204 4.00974 0.0 
5.11173 3.96186 0.0 
3.59408 3.59644 0.0 
4.84836 4.02726 0.0 
4.16261 4.05794 0.0 
4.08637 3.98671 0.0 
8.1554 7.24604 0.0 
4.74688 3.98621 0.0 
4.00432 3.99827 0.0 
4.52812 4.06445 0.0 
4.60459 3.98039 0.0 
3.93708 4.10317 0.0 
4.9921 3.96662 0.0 
4.03683 3.94561 0.0 
4.37422 4.08532 0.0 
4.0911 3.98345 0.0 
4.14295 3.97632 0.0 
4.58773 4.05732 0.0 
8.87792 8 0.0 
4.4119 3.94968 0.0 
13.5492 6.05441 0.0 
5.0218 3.98124 0.0 
4.18831 4.06957 0.0 
3.94945 3.97905 0.0 
4.0766 3.95386 0.0 
5.02983 4.05377 0.0 
5.10311 4.0306 0.0 
4.70775 3.9859 0.0 
8.20425 3.75636 0.0 
4.00093 4.03123 0.0 
4.10808 3.96074 0.0 
4.08645 3.96932 0.0 
5.01542 3.99915 0.0 
3.98027 4.05285 0.0 
1.36418 3.96174 0.0 
4.01501 4.02234 0.0 
0.293825 2.30473 0.0 
4.91848 3.80052 0.0 
4.28622 3.96829 0.0 
11.0732 4.52976 0.0 
3.9227 3.95237 0.0 
4.22898 4.08419 0.0 
4.04077 3.99338 0.0 
4.00778 4.00046 0.0 
4.02169 4.00411 0.0 
4.10231 3.92419 0.0 
4.49642 4.06436 0.0 
13.1066 7.48347 0.0 
4.34761 4.05403 0.0 
4.01462 4.01954 0.0 
13.4588 2.01213 0.0 
4.25731 4.08266 0.0 
4.85213 4.0258 0.0 
4.64757 4.09228 0.0 
4.82511 3.99105 0.0 
3.89706 4.12099 0.0 
[...]
<PointData>
  <DataArray type = "Float64" Name="Vitesse" NumberOfComponents="3" format="ascii">
1 0 0.0 
1.00063 0 0.0 
0.999658 0 0.0 
1 0 0.0 
1.03074 0.172462 0.0 
0.688386 0.287796 0.0 
0.984241 0.0637161 0.0 
1.06745 0.117831 0.0 
0.622451 -0.0816767 0.0 
1.00849 0.00133854 0.0 
0.155422 0.00307511 0.0 
1.67074e-06 2.31511e-07 0.0 
0.0153918 0.000746552 0.0 
1.00708 -0.00547684 0.0 
0.646455 -0.0574987 0.0 
0.999946 0.00036516 0.0 
0 0 0.0 
0.000152802 -1.19846e-05 0.0 
1.02128 -0.235802 0.0 
0.999677 0 0.0 
0 0 0.0 
0.702019 0.179415 0.0 
0.949023 0.097446 0.0 
0.308088 0.0282366 0.0 
0.151923 0.00839774 0.0 
2.52548e-21 1.91883e-22 0.0 
0.308903 0.0150348 0.0 
0.882286 0.245544 0.0 
1.002 -0.00460216 0.0 
1.68587e-86 2.16006e-86 0.0 
7.38437e-47 1.66851e-47 0.0 
0 0 0.0 
1.01028 0.00441193 0.0 
1.00711 0 0.0 
1.36828e-264 -6.43468e-266 0.0 
0.00366123 -0.000589157 0.0 
0.00621611 -0.0100519 0.0 
0 0 0.0 
0 0 0.0 
0 0 0.0 
0.977394 -0.212849 0.0 
1.00786 0 0.0 
0.0388782 -0.00215453 0.0 
0.0148901 0.000197086 0.0 
0.998588 0.00433548 0.0 
1.01186 0.0204184 0.0 
0.000369902 1.00475e-05 0.0 
0.763897 -0.0378796 0.0 
0 0 0.0 
0.112204 -0.000877247 0.0 
1.01017 0.00200196 0.0 
0.569615 0.0731559 0.0 
0.0100177 -0.000700078 0.0 
0.0842274 0.0168889 0.0 
0.166648 0.0443896 0.0 
0.0373241 0.00179826 0.0 
0.992927 -0.00158405 0.0 
0.8368 0.360592 0.0 
8.46724e-26 8.075e-27 0.0 
1 0 0.0 
0.185204 0.0212411 0.0 
0 0 0.0 
1.0036 0.00210919 0.0 
0.164231 -0.0221179 0.0 
5.33147e-08 -1.02516e-07 0.0 
0.0419666 -0.00626516 0.0 
0.189222 -0.00638984 0.0 
1.00473 0.000437474 0.0 
0 0 0.0 
0.346705 0.0152753 0.0 
1.00114 0.000805977 0.0 
0.519142 -0.0184292 0.0 
0.022758 0.000976791 0.0 
0.869562 0.350348 0.0 
0.871558 -0.281999 0.0 
0 0 0.0 
0.562308 0.0361692 0.0 
1.47387e-06 -1.31443e-07 0.0 
0.0678709 -0.0103261 0.0 
0.39658 -0.0162453 0.0 
0.0296203 -0.014078 0.0 
0.0249499 -0.00473271 0.0 
1.00056 -0.00025608 0.0 
0.00553483 0.000300603 0.0 
0.99963 6.73532e-05 0.0 
1.00017 -0.00475969 0.0 
0.253578 0.0718215 0.0 
0.671423 -0.0811762 0.0 
0.683592 0.0133191 0.0 
0.999883 0.00115133 0.0 
0.248553 -0.0189731 0.0 
1.00884 -0.000302164 0.0 
0.0194324 -0.000427056 0.0 
0.870652 0.0509701 0.0 
0.493886 -0.100295 0.0 
0.757314 -0.0413776 0.0 
0.35564 -0.00326053 0.0 
0.00246324 -0.000362414 0.0 
1.02415e-25 3.07449e-27 0.0 
0.0623819 -0.00923294 0.0 
2.52927e-15 4.33457e-16 0.0 
0 0 0.0 
1.06013 -0.036614 0.0 
0.832816 0.0360999 0.0 
0.507935 -0.0230703 0.0 
1.00004 -0.000132654 0.0 
0.999668 0.000200102 0.0 
0.000321729 1.33602e-05 0.0 
0.00532905 0.00011414 0.0 
0.50944 0.0666592 0.0 
0.274304 0.0110921 0.0 
0.794643 -0.130209 0.0 
0.0139347 0.000508373 0.0 
0.118926 -0.0119514 0.0 
0 0 0.0 
0 0 0.0 
0.999643 -3.14978e-06 0.0 
1.01176 -0.00644027 0.0 
0.349246 0.00358903 0.0 
0.198522 -0.293261 0.0 
1.00574 0.00403135 0.0 
0.015829 -0.00139058 0.0 
0.00844116 0.000604778 0.0 
0.991366 0.0113813 0.0 
0.347404 0.00729744 0.0 
0.643674 -0.00179229 0.0 
1.00764 0 0.0 
0.718857 0.145472 0.0 
0.609441 0.162388 0.0 
0.436184 0.107502 0.0 
0.00396108 0.000273114 0.0 
0.0172979 0.000478819 0.0 
1.00602 0 0.0 
0.199976 -0.026396 0.0 
0.259888 0.0111701 0.0 
0.109217 0.00931057 0.0 
0.000311931 4.21923e-05 0.0 
0.852834 0.168264 0.0 
1.00822 0.100798 0.0 
0.461715 -0.0362815 0.0 
1.00801 -0.000297619 0.0 
1.00824 0 0.0 
0.00718902 0.000177113 0.0 
0.991395 -0.00987246 0.0 
1.001 0.000498659 0.0 
0.414604 0.00264341 0.0 
0.0390374 0.00141958 0.0 
0 0 0.0 
0.227179 0.00248051 0.0 
0.454985 0.0122109 0.0 
0.580644 0.0821782 0.0 
0.806017 0.251541 0.0 
0 0 0.0 
1.0144 -0.00646812 0.0 
0 0 0.0 
0.0602019 -0.00675178 0.0 
6.25068e-31 1.15897e-31 0.0 
1.00773 -0.00933571 0.0 
0.733623 0.33403 0.0 
0.0948956 -0.0108931 0.0 
0.204477 -0.0196378 0.0 
0.558878 0.144548 0.0 
1.06179 -0.191886 0.0 
1.08967 0.116113 0.0 
0.00307463 -0.000555947 0.0 
0 0 0.0 
1.01061 0.00347335 0.0 
1.40307e-17 6.87843e-20 0.0 
0 0 0.0 
0.944817 -0.279063 0.0 
0 0 0.0 
0.531559 0.0154354 0.0 
0.14724 -0.0210163 0.0 
0.877579 -0.108472 0.0 
0.333897 0.176811 0.0 
0.222241 0.0261898 0.0 
0.803346 0.165411 0.0 
1 0 0.0 
0.743348 -0.050479 0.0 
0.939707 0.0766059 0.0 
0.760974 0.106587 0.0 
0.0174501 -0.00122219 0.0 
0.997161 0.000351347 0.0 
1.03352 -0.0376912 0.0 
0.368654 0.0272511 0.0 
0.0198879 -0.00540837 0.0 
0.0880822 0.0047003 0.0 
1.06053 -0.227506 0.0 
0.940531 0.00745729 0.0 
1.09294 0.185196 0.0 
1.00267 0 0.0 
0.107955 -0.0010422 0.0 
0.193253 -0.00871831 0.0 
1.01879 -0.0779848 0.0 
0.209237 -0.000346695 0.0 
0.678745 0.0263183 0.0 
0.753763 -0.101874 0.0 
1.05452 -0.134251 0.0 
0.824814 0.225154 0.0 
0.707429 0.0974782 0.0 
0.877382 0.171849 0.0 
0 0 0.0 
0 0 0.0 
0 0 0.0 
1.00598 0.00313692 0.0 
0.397021 -0.0099938 0.0 
0.283726 0.047936 0.0 
0.00941797 0.000642923 0.0 
0.370481 0.0475623 0.0 
0 0 0.0 
0.0930624 -0.00737958 0.0 
0.79785 -0.105166 0.0 
0.87896 -0.132633 0.0 
0.743039 -0.13405 0.0 
0.187935 -0.00714447 0.0 
0.00151016 -0.000185734 0.0 
0.446167 0.0406546 0.0 
1.00064 0.00049709 0.0 
0 0 0.0 
0.720365 -0.111396 0.0 
1.00541 0 0.0 
0.775679 -0.0899837 0.0 
6.10837e-10 8.22775e-11 0.0 
0 0 0.0 
0.915639 -0.131212 0.0 
6.79305e-06 -9.52133e-07 0.0 
0.00419383 0.000581045 0.0 
1.00882 -0.00776726 0.0 
0.778129 0.26429 0.0 
0.207791 0.0157935 0.0 
0.506954 0.0485225 0.0 
0.0637751 -0.0176248 0.0 
0.901528 -0.0105997 0.0 
0.662374 0.156732 0.0 
1.02905 0.0290733 0.0 
1.00181 0.000835232 0.0 
0.00113561 -6.90877e-05 0.0 
1.06892 0.191732 0.0 
1.10866 0.168704 0.0 
0.724801 0.122826 0.0 
1.75013e-288 6.14045e-290 0.0 
3.05935e-54 1.91286e-56 0.0 
0.569977 -0.271759 0.0 
6.69139e-16 -5.36819e-17 0.0 
0.674206 0.100957 0.0 
0.72237 0.157519 0.0 
0.919339 -0.194419 0.0 
0.31982 -0.0629043 0.0 
0.309263 -0.00133043 0.0 
0.099462 0.0109198 0.0 
0.934145 -0.0574804 0.0 
0.79344 -0.00940774 0.0 
4.22632e-18 3.57985e-19 0.0 
0.0145604 -0.00262934 0.0 
0.0743235 -0.010443 0.0 
0.00890954 -0.00100477 0.0 
0.449176 0.0287376 0.0 
0 0 0.0 
0.979638 0.30301 0.0 
0.00628864 -0.000324113 0.0 
3.20263e-233 -1.50612e-234 0.0 
0 0 0.0 
0.736868 -0.0381499 0.0 
1.00458 -0.000719992 0.0 
0.357027 -0.352904 0.0 
0.762545 0.329232 0.0 
0.078504 -0.0139607 0.0 
0.0233156 -0.00480963 0.0 
0 0 0.0 
1.0093 0.00133067 0.0 
0.965726 0.0733812 0.0 
1.01009 0.00529141 0.0 
0.998727 0.00150617 0.0 
0 0 0.0 
0.00993412 0.000611468 0.0 
0.0112456 0.000303103 0.0 
0.405761 -0.027186 0.0 
2.88083e-20 1.34996e-21 0.0 
1.01031 0.00234785 0.0 
0 0 0.0 
0.0064931 0.000196243 0.0 
0.322876 0.00355923 0.0 
1.05448 -0.249232 0.0 
0.292692 -0.0200615 0.0 
1.00823 0.000310554 0.0 
0.610957 0.308646 0.0 
0.0374178 0.0097414 0.0 
1.00833 0.00116096 0.0 
0.0881873 -0.00932128 0.0 
0.274142 -0.00660613 0.0 
0.16005 -0.00276057 0.0 
0.0173458 0.000309188 0.0 
0.947186 -0.0523671 0.0 
0.240505 -0.124877 0.0 
1.01089 -0.00263624 0.0 
0.186629 -0.0354761 0.0 
1.00883 0.00274173 0.0 
1.03464 0.018154 0.0 
1.00931 -9.09155e-05 0.0 
0 0 0.0 
0.393448 0.022485 0.0 
1.00048 -0.000452859 0.0 
0.440847 0.0101333 0.0 
1.09616 -0.122455 0.0 
1.00196 -0.000361581 0.0 
0.00827599 -0.000855972 0.0 
1.00353 -0.00130512 0.0 
1.00344 0.00157384 0.0 
0.550532 -0.0106261 0.0 
0 0 0.0 
2.45751e-127 -2.19789e-128 0.0 
1.06287 -0.103611 0.0 
0.60353 0.337721 0.0 
0.743208 -0.0645642 0.0 
1.08492e-44 2.13844e-46 0.0 
0.251204 -0.000440242 0.0 
1.00868 -0.00669931 0.0 
0.234621 0.00627365 0.0 
1.00854 0.0013632 0.0 
0.47886 -0.444631 0.0 
1.01112 -0.0444549 0.0 
0.772101 -0.0832252 0.0 
6.79403e-05 -4.90261e-06 0.0 
0.0490481 -0.116982 0.0 
-3.18496e-85 -2.19818e-86 0.0 
0.00309975 -0.000348986 0.0 
1.33334e-05 1.07292e-06 0.0 
0.155752 0.00577366 0.0 
0.0449243 -0.00703996 0.0 
1.00472 0.0171791 0.0 
0.398666 -0.0304693 0.0 
0.102837 0.0217747 0.0 
0 0 0.0 
0.460625 -0.0126031 0.0 
9.29163e-199 -2.53753e-199 0.0 
0.379071 -0.00660955 0.0 
1.00005 0.000486656 0.0 
0.999351 0.000172628 0.0 
0.259962 -0.0231179 0.0 
8.84931e-36 1.13115e-35 0.0 
0.999696 -0.000245245 0.0 
0.999931 -0.000231678 0.0 
3.86655e-27 3.34603e-27 0.0 
0.0771996 -0.0192272 0.0 
0.464387 -0.00596681 0.0 
0.121649 0.00999625 0.0 
5.29755e-17 -6.69256e-18 0.0 
0.593808 -0.345205 0.0 
0.869018 -0.0974421 0.0 
0.0115939 -0.00136991 0.0 
1.00815 -0.000868192 0.0 
0.103796 -0.0102299 0.0 
0.220768 -0.0164379 0.0 
0 0 0.0 
1.02193 -0.184697 0.0 
0.0290076 -0.000926028 0.0 
0 0 0.0 
0.756456 -0.0119729 0.0 
0.850555 -0.200878 0.0 
1.53883e-05 -1.25258e-06 0.0 
0.965585 -0.000763709 0.0 
4.76307e-08 -3.66102e-09 0.0 
0.0128049 0.000644993 0.0 
0 0 0.0 
5.36144e-14 -7.18494e-15 0.0 
0.100092 -0.00098475 0.0 
0.0242383 -0.000550318 0.0 
0.651423 0.0601648 0.0 
0.842614 -0.00806292 0.0 
0.00378737 0.000505672 0.0 
0.0647253 -0.120328 0.0 
0 0 0.0 
1.08053 -0.0494775 0.0 
0.638625 0.0897173 0.0 
1.01003 0.00555106 0.0 
1.00441 0.00155761 0.0 
0.811395 0.0787071 0.0 
0.121838 0.0114827 0.0 
2.56251e-21 2.47175e-22 0.0 
0.388925 0.0346767 0.0 
0 0 0.0 
0.264198 -0.0291593 0.0 
4.16458e-24 3.79342e-25 0.0 
0.0534942 -0.00190679 0.0 
0.011116 -0.00106057 0.0 
6.27944e-09 -1.22055e-11 0.0 
0.0309605 0.0013779 0.0 
1.00946 0.00317135 0.0 
1.00999 -0.000861262 0.0 
1.0073 0.00178416 0.0 
0 0 0.0 
0.247473 -0.00395653 0.0 
1.00815 -0.00257877 0.0 
-5.34175e-67 -6.59835e-68 0.0 
0.312008 0.267258 0.0 
0.196514 0.0832135 0.0 
-2.33759e-224 1.04062e-225 0.0 
0.801605 -0.120398 0.0 
0.685905 -0.180541 0.0 
0.00174043 -0.000234324 0.0 
0.791879 0.343847 0.0 
1.00846 -1.00607e-05 0.0 
0.0814615 -0.0437706 0.0 
0.584781 0.0714072 0.0 
0.474151 0.0420347 0.0 
0.120595 -0.025858 0.0 
0.00753584 -0.000653449 0.0 
1.01255 -0.19403 0.0 
0.63074 -0.0745694 0.0 
1.00001 -0.000287521 0.0 
0.608626 0.317134 0.0 
0.183956 -0.018246 0.0 
0.505388 0.0381815 0.0 
0.519995 0.0820297 0.0 
0.0944265 -0.146261 0.0 
0.305486 0.0283992 0.0 
0 0 0.0 
1.00957 0.00253009 0.0 
0.99125 0.0519388 0.0 
0 0 0.0 
0.389973 0.0295899 0.0 
0.982188 -0.0254315 0.0 
0.0047844 -0.000685952 0.0 
5.23513e-10 5.62242e-11 0.0 
0 0 0.0 
1.00593 -0.00173928 0.0 
0.00840071 0.000506212 0.0 
0 0 0.0 
0.037988 -0.0025289 0.0 
4.81708e-07 4.41561e-08 0.0 
0.875403 0.116102 0.0 
0.309592 0.0214275 0.0 
1.0258 -0.2897 0.0 
0.354403 0.00362509 0.0 
0 0 0.0 
0 0 0.0 
0.00796218 -0.000679633 0.0 
1.00407 0 0.0 
0.342814 0.00602505 0.0 
0.999572 6.94069e-05 0.0 
0.182037 0.0240102 0.0 
0.303628 0.0394349 0.0 
0.75893 -0.104672 0.0 
0.801161 -0.139961 0.0 
0.274115 -0.0317553 0.0 
0.15933 -0.0163177 0.0 
5.23061e-29 6.45809e-30 0.0 
0.980652 -0.00362906 0.0 
0.640602 0.342357 0.0 
0.354855 -0.0333427 0.0 
0.0970442 -0.0071369 0.0 
0.0504619 0.00571235 0.0 
0.760316 0.198987 0.0 
0.998857 0.000380283 0.0 
0.244079 0.146268 0.0 
0.999995 -0.00026411 0.0 
1.05091 0.0173643 0.0 
0.00943453 0.000179826 0.0 
0.998177 0.000126165 0.0 
0.843446 -0.0930159 0.0 
0.589503 0.0590139 0.0 
0 0 0.0 
2.14744e-65 -6.20164e-65 0.0 
0 0 0.0 
1.08618 -0.166149 0.0 
0.010948 0.000169249 0.0 
0.999653 -3.48419e-05 0.0 
4.80577e-218 -2.26004e-219 0.0 
0.0501269 0.0294618 0.0 
1.00044 0.000581228 0.0 
0.464656 0.0362363 0.0 
0.00141131 -0.000137137 0.0 
0.480033 -0.0249444 0.0 
3.01912e-19 2.36527e-20 0.0 
0.89937 0.0832992 0.0 
0.0148097 -0.00392537 0.0 
0.349984 -0.0263898 0.0 
0.399465 0.0342161 0.0 
0.00600811 0.000492268 0.0 
0 0 0.0 
1.00699 0.00563746 0.0 
0.50468 0.0112462 0.0 
0.0263394 0.00185186 0.0 
0 0 0.0 
0.794373 0.0103266 0.0 
0.707625 -0.376524 0.0 
1.00936 0.00230977 0.0 
1.07423 -0.0982516 0.0 
0.234431 -0.000590351 0.0 
1.05609 0.00351957 0.0 
0.138078 -0.00862801 0.0 
0.271835 0.0260673 0.0 
0.0101583 -0.00118867 0.0 
0.656397 -0.284452 0.0 
0 0 0.0 
1.67905e-06 -7.74564e-07 0.0 
0.705394 0.00156406 0.0 
0.552136 0.284227 0.0 
0.110879 -0.00826773 0.0 
0.194156 -0.0203657 0.0 
0.999316 -0.00011817 0.0 
1.27698e-54 8.37574e-56 0.0 
0.715218 -0.265988 0.0 
1.00003 0.000850539 0.0 
0.268623 -0.00159313 0.0 
0.183294 -0.237963 0.0 
0.933389 -0.0607778 0.0 
0.240021 0.00916878 0.0 
0.106026 0.0191277 0.0 
0 0 0.0 
0 0 0.0 
0.873858 0.0874051 0.0 
0.717222 0.338465 0.0 
0.525223 -0.0572749 0.0 
0 0 0.0 
0.648668 0.257891 0.0 
0.712687 0.27242 0.0 
1.56341e-05 -5.06489e-06 0.0 
0.999034 0.000102466 0.0 
0.00285907 0.000266798 0.0 
1.34034e-18 1.59696e-19 0.0 
1.01063 -0.00108778 0.0 
0 0 0.0 
0.768067 0.120876 0.0 
0.492288 0.0957839 0.0 
1.00015 0.000565396 0.0 
0 0 0.0 
0.0385236 -0.00107923 0.0 
0.317335 -0.00494302 0.0 
0.00198019 -0.000133998 0.0 
0.45555 0.0253574 0.0 
0.0396317 0.00987374 0.0 
0.677641 0.243039 0.0 
0.0434642 0.00583957 0.0 
1.0011 0 0.0 
0.0148967 0.000928978 0.0 
0.715813 0.360873 0.0 
0.709676 0.376767 0.0 
0.858704 0.153345 0.0 
3.96102e-217 -1.86277e-218 0.0 
0 0 0.0 
0.00945355 -0.00114711 0.0 
0 0 0.0 
0.865659 0.0972339 0.0 
0.72897 0.309617 0.0 
1.00034 -0.000257842 0.0 
1.00386 0.00129962 0.0 
2.31953e-33 6.21189e-35 0.0 
1.00895 -0.00147709 0.0 
3.14047e-05 1.21527e-06 0.0 
0.590203 -0.226587 0.0 
0.607706 -0.290341 0.0 
1.06443e-08 -3.2259e-09 0.0 
1.01988 -0.25173 0.0 
1.00936 -0.000597933 0.0 
1.07611 0.178188 0.0 
0 0 0.0 
1.01469 0.0115269 0.0 
0.0767364 -0.00967472 0.0 
1.00182 -0.00266036 0.0 
0.554075 -0.0635213 0.0 
0.536953 0.0992782 0.0 
0.00769019 -0.00111688 0.0 
0 0 0.0 
0.147385 0.13276 0.0 
0.999899 0.000911032 0.0 
1.00827 0 0.0 
0.424837 -0.122215 0.0 
0 0 0.0 
0 0 0.0 
-2.4898e-88 -2.43576e-89 0.0 
0.580419 -0.427604 0.0 
1.00062 -0.00179474 0.0 
1.0003 0 0.0 
1.34615e-28 3.60509e-30 0.0 
0.44906 -0.0989871 0.0 
0.541497 -0.0325604 0.0 
0.467364 -0.00950649 0.0 
0.00764987 0.000519501 0.0 
0 0 0.0 
1.59774e-25 1.19251e-26 0.0 
0.722537 0.0545054 0.0 
0.494877 0.107913 0.0 
0.905213 0.0285094 0.0 
0.0667986 -0.00126203 0.0 
0.782263 0.368228 0.0 
0.835737 0.138799 0.0 
0.0190252 -8.05989e-05 0.0 
0.187887 0.0115787 0.0 
0.920705 0.0790113 0.0 
1.87106e-62 -3.78219e-64 0.0 
0 0 0.0 
1.01859 0.201489 0.0 
0.471695 -0.0833626 0.0 
8.35768e-55 8.30579e-55 0.0 
1.0077 -0.00600611 0.0 
0.460785 -0.0432945 0.0 
1 0 0.0 
0.278973 0.0196342 0.0 
0.760176 0.374276 0.0 
0 0 0.0 
0 0 0.0 
0.345566 -0.0228867 0.0 
1.00868 0.000174992 0.0 
1.03385 0.261361 0.0 
0.391115 -0.0189039 0.0 
1.00924 0 0.0 
0.749757 0.278644 0.0 
0 0 0.0 
0.999631 1.78543e-05 0.0 
0.0111789 0.000569494 0.0 
0.997575 0.00655382 0.0 
0.992288 -0.00876131 0.0 
0.151209 0.0179546 0.0 
0.797201 -0.00606839 0.0 
1.00543 0 0.0 
1.876e-07 -1.76069e-08 0.0 
0.79013 0.320369 0.0 
0.0184364 -0.00518244 0.0 
0.999973 -0.000944525 0.0 
6.06792e-06 1.06744e-06 0.0 
0.342684 -0.0261067 0.0 
0.490749 -0.0495065 0.0 
0.770349 0.366793 0.0 
0.747706 0.0645703 0.0 
0.320181 0.0631398 0.0 
1.00088 0.00237465 0.0 
0.86507 0.355487 0.0 
0.974481 -0.0167566 0.0 
0.4904 -0.170914 0.0 
0.816283 0.357959 0.0 
0.76322 0.306792 0.0 
1.00934 -0.00564367 0.0 
0.943188 -0.335028 0.0 
0.573433 -0.0610828 0.0 
0.745962 -0.0904478 0.0 
0.806099 -0.0813709 0.0 
0.00630569 -0.000108513 0.0 
1.03284 0.0161445 0.0 
0.142472 -0.0189537 0.0 
0.3249 0.0447364 0.0 
1.05097 0.102614 0.0 
1.0009 0.000877552 0.0 
0 0 0.0 
6.49605e-24 1.40357e-24 0.0 
0.291865 0.00223151 0.0 
2.14327e-06 -7.23657e-08 0.0 
-9.80537e-281 -1.94146e-281 0.0 
1.00658 0.000640257 0.0 
0 0 0.0 
0.862069 -0.0515256 0.0 
0.0464059 -0.00987555 0.0 
0.0627832 0.0024345 0.0 
1.02127 0.242611 0.0 
0.00497919 0.000587791 0.0 
0.412942 -0.00474689 0.0 
0.810629 0.128029 0.0 
0.0736517 0.0390615 0.0 
0.131001 0.00852305 0.0 
2.36055e-49 1.17336e-50 0.0 
0.453954 -0.0476047 0.0 
0.999642 -1.24025e-06 0.0 
0.582493 0.344521 0.0 
0.864484 0.0667656 0.0 
0.999897 4.04864e-05 0.0 
0.780893 0.137572 0.0 
0.00129247 -0.000160221 0.0 
1.00706 -0.000790317 0.0 
-4.28734e-51 -1.46351e-52 0.0 
0.883208 0.1447 0.0 
0.0133976 0.000846938 0.0 
0.800299 0.0743797 0.0 
1.00137 0 0.0 
1.00744 0.000628571 0.0 
0.695446 -0.447027 0.0 
0.768161 0.0886461 0.0 
1.00818 -0.00654002 0.0 
1.00136 0.00608241 0.0 
0 0 0.0 
0.216027 -0.00258765 0.0 
-7.14466e-89 -2.7176e-90 0.0 
0.00345245 0.000471287 0.0 
0.771153 -0.288887 0.0 
0.996671 0.00147804 0.0 
0.0152163 0.000719233 0.0 
1.00397 -0.000674083 0.0 
8.3772e-06 -2.06609e-07 0.0 
0.404232 -0.00318041 0.0 
1.09774 -0.104038 0.0 
0.016891 0.000927496 0.0 
0.172763 0.0130001 0.0 
8.49348e-08 1.35958e-08 0.0 
1.00446 -0.266181 0.0 
0.860016 -0.142579 0.0 
1.01081 -0.00709493 0.0 
0.248603 -0.0130519 0.0 
0.59196 0.0823975 0.0 
0.0434648 -0.0165877 0.0 
1.07263 0.202564 0.0 
0.148781 0.0799766 0.0 
2.18003e-08 3.63935e-08 0.0 
2.08683e-249 -9.81387e-251 0.0 
0.326413 -0.02124 0.0 
0 0 0.0 
0.323152 0.0109131 0.0 
0.845922 0.173173 0.0 
1e-307 1e-307 0.0 
0.196332 -0.0081876 0.0 
0.232683 0.0180266 0.0 
1.64273e-06 -1.88108e-07 0.0 
0.86253 0.258539 0.0 
4.03261e-05 1.04244e-06 0.0 
0 0 0.0 
0 0 0.0 
0.000248073 3.48404e-05 0.0 
0.0294488 -3.26756e-05 0.0 
2.31096e-06 6.49612e-07 0.0 
1.0109 -0.00581307 0.0 
1.01929 -0.00836338 0.0 
0 0 0.0 
0.891933 -0.299595 0.0 
1.60798e-11 -8.6961e-12 0.0 
0.96738 0.305882 0.0 
0.914164 -0.042226 0.0 
1.00771 0 0.0 
1.00423 0.000356568 0.0 
0 0 0.0 
0.00834342 0.00039313 0.0 
5.37149e-05 4.82709e-06 0.0 
0.856318 -0.0534477 0.0 
0 0 0.0 
1.00682 -0.0148599 0.0 
1.0963 -0.0750242 0.0 
9.53998e-24 -5.15886e-24 0.0 
1.00848 0.00364689 0.0 
0.00484173 -0.00113794 0.0 
1.00681 0.00363554 0.0 
1.06119 0.219913 0.0 
1.0005 0.0051759 0.0 
1.01842 -0.301461 0.0 
0.313966 -0.0133616 0.0 
0.941454 -0.10065 0.0 
0.575845 -0.0456812 0.0 
0.00769677 -0.000694338 0.0 
0.353706 -0.00378391 0.0 
1.012 -0.294238 0.0 
0.753568 0.220924 0.0 
0.323598 0.168024 0.0 
1.00041 0.0004139 0.0 
1.01049 0.00438119 0.0 
0.00131369 -3.91991e-05 0.0 
0.073818 4.54413e-05 0.0 
8.36212e-11 2.08332e-11 0.0 
1.01595 -0.00200235 0.0 
1.01114 -0.00273125 0.0 
0.999513 -0.000206284 0.0 
0.100951 -0.0392152 0.0 
0 0 0.0 
0.319606 0.0762175 0.0 
0.0712102 0.00751049 0.0 
0 0 0.0 
0.129223 -0.00924391 0.0 
0.124699 -0.0118916 0.0 
0.0167913 -0.00128297 0.0 
0.999641 -6.92254e-06 0.0 
1.00992 0.25609 0.0 
0.726464 -0.0648177 0.0 
0.87573 -0.0560676 0.0 
1.05478 0.010573 0.0 
1.00021 0.00176146 0.0 
0.0390345 0.00552172 0.0 
1.05568 0.0955728 0.0 
0.226879 -0.00213948 0.0 
0.834957 -0.116214 0.0 
1.00422 -0.00142176 0.0 
0.00722009 -0.000445766 0.0 
0.607943 -0.46262 0.0 
0.0418339 0.00154666 0.0 
0.429779 0.00391825 0.0 
0.728019 0.192602 0.0 
9.71407e-21 1.37742e-21 0.0 
0.679163 0.200723 0.0 
1.00805 0 0.0 
0.74724 -0.383461 0.0 
1.00083 0.000962684 0.0 
0 0 0.0 
0.10984 0.0124104 0.0 
1.00168 0.0131416 0.0 
0.145445 0.0366389 0.0 
1.00724 -0.00195579 0.0 
0.00164824 -0.000157686 0.0 
1.03626 -0.272626 0.0 
1.46311e-13 2.77244e-14 0.0 
1.00055 -0.000833622 0.0 
0 0 0.0 
1.09192 0.0197624 0.0 
0.0365125 -0.0152322 0.0 
1.00683 0.00129224 0.0 
0.998446 0.0117486 0.0 
1.01536 -0.0253066 0.0 
0.446202 -0.00991065 0.0 
0.0083202 -0.000573108 0.0 
1.00461 0.00439105 0.0 
0.461061 -0.190496 0.0 
1.00474 0.000440308 0.0 
0.00472185 0.000559601 0.0 
4.0188e-09 3.52502e-10 0.0 
0.189386 0.0403608 0.0 
1.00779 -0.00151292 0.0 
0.00015802 -1.35468e-05 0.0 
0.0660613 0.00507008 0.0 
1.00628 -0.00583424 0.0 
0.585314 -0.0715515 0.0 
0.0230409 -0.00060111 0.0 
1.06704 -0.0374584 0.0 
0.374102 -0.000234221 0.0 
1.00055 0.00147629 0.0 
1.10204 -0.00877023 0.0 
0.782623 -0.046177 0.0 
0 0 0.0 
0.00315387 -0.000294083 0.0 
0.0778722 -0.00627431 0.0 
0.00020375 -2.42377e-06 0.0 
1 0 0.0 
1.00006 0.000974612 0.0 
0 0 0.0 
1.0036 0.00408716 0.0 
0.0923341 -0.010481 0.0 
0.0100861 0.000499252 0.0 
1.00078 0 0.0 
1.09404 -0.100151 0.0 
0.941843 -0.359768 0.0 
0.0373971 0.000650434 0.0 
0.137442 0.0271293 0.0 
0.00803595 0.000202445 0.0 
0.23427 0.022845 0.0 
0.0488181 -0.00328679 0.0 
0 0 0.0 
0 0 0.0 
0.0410787 -0.0134467 0.0 
0.943398 -0.0102983 0.0 
1.00412 0.000761199 0.0 
1.00266 -0.0077332 0.0 
1.00697 -0.00597989 0.0 
0.392109 0.017796 0.0 
0.0882132 -0.00922849 0.0 
0.652646 0.277124 0.0 
0.0516995 0.00721454 0.0 
0.950671 -0.288427 0.0 
0.837647 -0.02273 0.0 
0.920003 -0.304364 0.0 