<VTKFile type="UnstructuredGrid" version="0.1" byte_order="LittleEndian">
  <UnstructuredGrid>
    <Piece NumberOfPoints="18969" NumberOfCells="37853">
      <Points>
        <DataArray type = "Float64" NumberOfComponents="3" format="ascii">
4.15815 3.24055 0.0 
4.19334 3.30794 0.0 
4.24519 3.00288 0.0 
4.48383 2.99089 0.0 
4.21064 3.2882 0.0 
4.36344 3.26516 0.0 
4.22784 2.9971 0.0 
4.16626 2.92413 0.0 
4.09857 3.19512 0.0 
4.12854 3.27219 0.0 
4.16402 3.2922 0.0 
4.1872 3.31301 0.0 
4.18528 3.30559 0.0 
4.2138 3.29344 0.0 
4.10873 3.26333 0.0 
4.55193 2.97565 0.0 
4.1419 3.28471 0.0 
4.07805 3.21301 0.0 
4.45829 2.9326 0.0 
4.16963 3.25575 0.0 
4.1466 3.25894 0.0 
4.07582 3.23906 0.0 
3.88031 3.03005 0.0 
4.24915 2.99016 0.0 
4.62559 2.87785 0.0 
4.59272 2.93086 0.0 
4.21528 3.16723 0.0 
4.5152 2.95 0.0 
4.478 3.01994 0.0 
4.12943 3.25186 0.0 
4.17805 2.98888 0.0 
4.20029 3.28911 0.0 
4.52222 2.95115 0.0 
3.94056 2.99735 0.0 
4.53662 2.93052 0.0 
4.22846 3.29295 0.0 
4.25913 3.23751 0.0 
4.23722 3.0027 0.0 
4.54974 2.94538 0.0 
4.23418 2.98503 0.0 
4.48701 3.07296 0.0 
4.24374 3.00381 0.0 
4.3664 2.95126 0.0 
4.19133 3.27329 0.0 
4.49565 2.93622 0.0 
4.13169 3.23151 0.0 
4.49909 3.00061 0.0 
4.15374 3.27064 0.0 
4.49804 3.04057 0.0 
4.17589 3.26783 0.0 
4.49453 2.94571 0.0 
4.40015 2.86671 0.0 
3.89253 2.95473 0.0 
3.77878 3.00859 0.0 
3.80159 3.00311 0.0 
3.81341 2.9905 0.0 
3.7774 3.00207 0.0 
4.47136 2.94869 0.0 
4.54858 2.98614 0.0 
4.5191 2.85369 0.0 
4.07752 2.98922 0.0 
3.8167 2.97886 0.0 
3.75256 3.02247 0.0 
4.4293 2.97961 0.0 
4.41404 3.23174 0.0 
4.54254 2.98156 0.0 
3.97622 3.00762 0.0 
4.44354 3.12282 0.0 
4.41072 3.21938 0.0 
4.40166 2.95776 0.0 
4.52596 2.96726 0.0 
4.2371 3.00494 0.0 
4.519 2.96189 0.0 
4.21258 3.27861 0.0 
4.27649 3.28032 0.0 
4.22209 3.28348 0.0 
4.49452 3.07021 0.0 
4.44354 2.94458 0.0 
4.52324 2.98279 0.0 
4.25728 3.01921 0.0 
4.56039 2.94812 0.0 
3.92156 3.04722 0.0 
4.48212 2.93482 0.0 
4.45956 2.95709 0.0 
4.24294 3.29262 0.0 
4.18757 3.14966 0.0 
4.32733 3.25688 0.0 
4.51142 2.9794 0.0 
4.10976 2.99535 0.0 
4.54373 2.93751 0.0 
4.20809 3.26803 0.0 
4.54619 2.95809 0.0 
4.22995 3.02507 0.0 
4.25262 3.29591 0.0 
4.46587 3.22827 0.0 
4.12132 3.00072 0.0 
4.29179 3.12137 0.0 
4.26603 2.96775 0.0 
3.89687 3.15158 0.0 
4.31081 3.27775 0.0 
4.51848 3.01538 0.0 
4.39876 3.2164 0.0 
4.50381 2.96808 0.0 
4.04426 2.98633 0.0 
4.60302 2.8702 0.0 
4.52784 2.97706 0.0 
4.52893 2.94376 0.0 
4.47649 3.11493 0.0 
3.7812 3.12942 0.0 
3.99004 3.0002 0.0 
4.47863 2.95285 0.0 
4.24364 3.00151 0.0 
4.53956 2.99296 0.0 
4.2227 3.00317 0.0 
4.26705 2.99616 0.0 
4.40329 3.14254 0.0 
4.5113 2.96717 0.0 
4.42298 2.95233 0.0 
4.51334 2.98644 0.0 
4.27417 2.99328 0.0 
4.50423 2.94335 0.0 
4.43311 2.9401 0.0 
4.50514 2.92684 0.0 
4.20132 3.00724 0.0 
4.18947 3.28531 0.0 
4.29936 2.96296 0.0 
4.5064 2.97566 0.0 
4.28425 3.09289 0.0 
4.23085 3.00724 0.0 
4.51856 2.94044 0.0 
4.21104 2.98724 0.0 
4.24775 3.01326 0.0 
4.25045 3.29249 0.0 
4.57012 2.95643 0.0 
4.46953 2.95823 0.0 
4.56278 2.9326 0.0 
4.56872 2.8809 0.0 
4.5265 2.95529 0.0 
4.4418 2.95411 0.0 
4.51155 2.95856 0.0 
4.50132 2.9606 0.0 
4.4846 3.05525 0.0 
4.12485 2.97032 0.0 
4.2389 3.01093 0.0 
4.46153 2.94377 0.0 
4.41292 2.99041 0.0 
4.10097 2.99058 0.0 
4.28742 3.28438 0.0 
4.48897 3.0094 0.0 
4.49257 3.04966 0.0 
4.22499 3.27216 0.0 
4.22754 2.97862 0.0 
4.4965 2.9537 0.0 
4.23355 2.92372 0.0 
4.51558 2.97174 0.0 
4.58619 2.94502 0.0 
4.02894 2.99471 0.0 
4.36573 3.02816 0.0 
4.40795 3.04721 0.0 
4.17436 2.96775 0.0 
4.33381 3.27059 0.0 
4.38444 3.17217 0.0 
4.53637 2.95238 0.0 
4.32858 3.15776 0.0 
4.34534 2.88711 0.0 
4.47839 3.01046 0.0 
4.48677 2.95288 0.0 
4.23111 3.00381 0.0 
4.41366 3.07083 0.0 
4.5528 2.9236 0.0 
4.49313 3.02223 0.0 
4.39193 2.99109 0.0 
4.32937 2.95967 0.0 
4.48662 2.92555 0.0 
4.3764 2.96024 0.0 
3.83958 3.13104 0.0 
4.40115 3.18637 0.0 
4.28751 2.95459 0.0 
4.50798 2.95102 0.0 
4.45629 2.95192 0.0 
4.29472 3.27892 0.0 
4.47241 3.14067 0.0 
4.44326 2.97136 0.0 
4.36858 3.23326 0.0 
4.2344 3.00382 0.0 
4.25911 3.01254 0.0 
4.491 3.06075 0.0 
4.51941 2.97906 0.0 
4.23375 3.30345 0.0 
4.21836 3.00413 0.0 
4.23939 3.29838 0.0 
4.17776 3.28181 0.0 
4.24604 3.29791 0.0 
4.18852 3.29514 0.0 
4.48195 3.10142 0.0 
4.20442 3.29633 0.0 
4.22379 3.29851 0.0 
4.23208 3.29797 0.0 
4.49386 2.96228 0.0 
4.17682 3.29321 0.0 
4.43751 2.996 0.0 
3.89839 3.01927 0.0 
4.21542 3.29799 0.0 
4.06206 2.99531 0.0 
4.16546 3.0029 0.0 
4.53614 2.96858 0.0 
4.36156 3.15056 0.0 
4.24502 3.28608 0.0 
4.55819 2.95683 0.0 
4.16276 3.28105 0.0 
4.2583 3.29013 0.0 
4.1611 3.20081 0.0 
4.20728 3.30087 0.0 
4.1045 3.24402 0.0 
4.47218 3.04211 0.0 
4.23917 3.00374 0.0 
4.5345 2.98713 0.0 
4.20168 3.30662 0.0 
4.34452 2.96527 0.0 
4.05023 3.20018 0.0 
4.21037 3.30651 0.0 
4.37708 3.2522 0.0 
4.21609 3.30251 0.0 
4.50906 2.93442 0.0 
4.54144 3.00201 0.0 
3.87515 3.01895 0.0 
4.37092 3.26303 0.0 
4.33948 3.24685 0.0 
4.19679 3.30259 0.0 
4.23801 3.27491 0.0 
4.5102 3.03159 0.0 
4.5217 2.92524 0.0 
4.25229 3.27924 0.0 
4.32833 3.27692 0.0 
4.273 3.28591 0.0 
4.21681 3.30734 0.0 
4.22738 3.30507 0.0 
4.4262 2.97036 0.0 
4.23586 3.29065 0.0 
4.19585 3.31212 0.0 
4.19432 3.29801 0.0 
4.23045 3.28367 0.0 
4.22285 3.30357 0.0 
4.23478 3.00174 0.0 
4.26786 3.28104 0.0 
4.29811 3.28905 0.0 
4.5026 3.01212 0.0 
4.44341 2.96189 0.0 
4.24753 3.27242 0.0 
4.11204 2.97918 0.0 
4.3096 3.00643 0.0 
3.96791 2.97473 0.0 
4.19569 2.97464 0.0 
4.50642 3.0988 0.0 
3.93627 2.97887 0.0 
4.21927 2.99299 0.0 
4.28704 3.15726 0.0 
4.24011 2.99362 0.0 
4.24679 3.03117 0.0 
4.15971 3.2223 0.0 
4.48682 2.96001 0.0 
4.25955 3.27987 0.0 
4.39886 3.06525 0.0 
3.83272 3.02808 0.0 
4.25264 3.28647 0.0 
4.47849 2.96768 0.0 
4.36937 3.00365 0.0 
3.92286 2.98927 0.0 
4.24762 3.02406 0.0 
4.31132 3.02472 0.0 
4.53319 2.99685 0.0 
4.51893 3.0312 0.0 
3.90941 2.98305 0.0 
4.39977 2.9474 0.0 
3.96753 2.99192 0.0 
4.26528 3.27488 0.0 
4.47073 2.92246 0.0 
4.38637 3.25588 0.0 
4.25874 3.27223 0.0 
4.2309 3.2745 0.0 
4.22665 3.0102 0.0 
3.84608 3.03197 0.0 
4.34189 2.86783 0.0 
4.39353 3.04141 0.0 
4.53617 2.96158 0.0 
4.27215 2.99991 0.0 
3.89817 2.99173 0.0 
4.46236 3.08301 0.0 
4.45737 3.18389 0.0 
4.31747 3.25089 0.0 
4.34322 3.23041 0.0 
4.28792 3.29044 0.0 
4.4245 3.21074 0.0 
3.97312 2.99763 0.0 
4.17386 2.98366 0.0 
4.21599 3.03665 0.0 
4.24093 2.97138 0.0 
4.08743 2.98026 0.0 
4.47256 3.07938 0.0 
4.48658 2.96771 0.0 
4.38332 3.05902 0.0 
4.28488 2.97969 0.0 
4.26618 3.2903 0.0 
4.24994 2.97949 0.0 
4.28769 2.99925 0.0 
4.19636 3.00122 0.0 
4.24139 3.28147 0.0 
4.13668 3.04253 0.0 
4.27983 3.28451 0.0 
4.30724 3.24947 0.0 
4.19251 2.98804 0.0 
4.27367 3.29016 0.0 
4.45706 2.96467 0.0 
4.5585 2.86439 0.0 
4.29116 2.98395 0.0 
4.49845 2.97626 0.0 
4.32241 2.98805 0.0 
4.42665 3.11864 0.0 
4.47352 3.03338 0.0 
4.39228 3.01685 0.0 
4.26052 3.28538 0.0 
4.47807 2.96087 0.0 
4.46448 3.03352 0.0 
4.46831 2.96641 0.0 
4.50856 2.99676 0.0 
4.51227 3.17154 0.0 
4.48954 3.08398 0.0 
4.52644 2.99427 0.0 
4.52011 3.0054 0.0 
4.22096 3.26536 0.0 
4.24374 2.99862 0.0 
4.28781 2.99241 0.0 
4.35274 2.98248 0.0 
4.57899 2.92418 0.0 
4.41843 2.96226 0.0 
4.57158 2.91709 0.0 
4.30292 2.9889 0.0 
4.41531 3.00063 0.0 
4.2667 3.28562 0.0 
4.4851 3.20476 0.0 
4.52069 2.99669 0.0 
4.48065 3.08977 0.0 
4.37181 3.09979 0.0 
4.22292 3.00149 0.0 
4.23403 2.99836 0.0 
4.55603 2.96467 0.0 
4.10554 3.12833 0.0 
4.1483 3.01049 0.0 
4.48227 2.97534 0.0 
4.45609 2.99098 0.0 
4.33678 3.27428 0.0 
4.25774 3.0022 0.0 
4.48546 3.02163 0.0 
4.50062 2.98376 0.0 
4.22893 3.00269 0.0 
4.45184 3.07018 0.0 
4.0268 3.02789 0.0 
4.19554 3.25732 0.0 
4.38333 3.14831 0.0 
4.12751 2.98657 0.0 
4.17412 3.02032 0.0 
4.27607 2.97608 0.0 
4.22806 2.99138 0.0 
4.27681 3.29473 0.0 
4.15296 2.98201 0.0 
4.242 3.01315 0.0 
4.39613 3.25179 0.0 
4.27111 3.00733 0.0 
4.30222 2.99407 0.0 
4.47165 3.09284 0.0 
4.29782 3.03243 0.0 
4.50323 3.22154 0.0 
4.17976 2.97459 0.0 
4.30707 3.26958 0.0 
4.47983 3.06855 0.0 
4.30728 2.97185 0.0 
4.13631 2.97461 0.0 
4.45764 2.97295 0.0 
4.28571 3.27933 0.0 
4.12865 3.15174 0.0 
4.49535 3.1293 0.0 
4.36851 3.25926 0.0 
4.21317 3.00195 0.0 
4.19864 2.96505 0.0 
4.24121 2.99771 0.0 
4.2601 3.02391 0.0 
4.35673 2.97277 0.0 
4.48256 3.21723 0.0 
4.5075 3.14559 0.0 
4.62138 2.91171 0.0 
4.21206 3.00656 0.0 
4.21102 2.9799 0.0 
3.89213 3.01724 0.0 
4.49383 2.97024 0.0 
4.32666 3.03899 0.0 
4.45701 3.00785 0.0 
4.51525 2.9963 0.0 
3.95167 2.9992 0.0 
4.51187 3.00433 0.0 
4.26499 2.98687 0.0 
3.85167 3.01271 0.0 
4.50841 3.0432 0.0 
4.53638 2.91042 0.0 
4.48228 3.17675 0.0 
3.97773 3.02658 0.0 
4.52651 2.93527 0.0 
4.2336 3.00512 0.0 
4.38927 2.96699 0.0 
4.52693 3.00644 0.0 
4.24096 2.99093 0.0 
4.439 3.02114 0.0 
4.28103 3.28894 0.0 
4.26314 3.005 0.0 
4.36009 3.23844 0.0 
4.42028 3.14702 0.0 
4.35436 3.17166 0.0 
4.2027 2.99619 0.0 
4.45209 2.91987 0.0 
4.2383 3.00722 0.0 
4.50368 3.0316 0.0 
4.23179 3.00286 0.0 
4.51853 2.98901 0.0 
4.17017 2.99239 0.0 
4.32439 3.27294 0.0 
4.49127 3.03276 0.0 
4.22704 3.00532 0.0 
4.37147 3.24175 0.0 
4.24953 2.98541 0.0 
4.48556 2.94419 0.0 
4.37976 3.23484 0.0 
4.26477 3.00267 0.0 
3.8388 3.03015 0.0 
4.24994 3.00092 0.0 
4.44426 3.00472 0.0 
4.29535 3.28412 0.0 
4.23881 2.98024 0.0 
4.50741 3.07339 0.0 
4.23043 3.0193 0.0 
4.27491 3.05678 0.0 
4.21601 3.04605 0.0 
4.50751 3.01371 0.0 
4.26749 3.26693 0.0 
4.20785 3.00792 0.0 
4.22692 3.01615 0.0 
4.24187 3.00242 0.0 
4.34781 3.01468 0.0 
4.30494 3.10002 0.0 
4.139 3.00657 0.0 
4.23875 3.02661 0.0 
4.30613 3.27524 0.0 
4.42153 3.15959 0.0 
4.27439 3.00353 0.0 
4.22259 3.00877 0.0 
4.32168 2.97678 0.0 
4.42141 3.2292 0.0 
4.43609 2.92944 0.0 
4.33412 3.23938 0.0 
4.18917 3.01988 0.0 
4.49882 2.99286 0.0 
4.21641 3.05767 0.0 
4.29185 2.90493 0.0 
4.41103 3.20299 0.0 
4.19245 3.0031 0.0 
3.85774 3.03329 0.0 
4.27915 2.99648 0.0 
4.45068 2.88008 0.0 
4.48963 3.00089 0.0 
4.56296 2.97164 0.0 
4.29548 3.18625 0.0 
[...]
<PointData>
  <DataArray type = "Float64" Name="Vitesse" NumberOfComponents="3" format="ascii">
-0.0555756 -0.0293973 0.0 
-0.018086 0.00317509 0.0 
-0.00514997 0.00969814 0.0 
-0.0378944 0.171457 0.0 
-0.0372453 0.00767239 0.0 
-0.00976096 0.00362414 0.0 
0.0258692 -0.02558 0.0 
0.793223 -0.127299 0.0 
-0.0655532 -0.0658572 0.0 
-0.0304728 -0.0359918 0.0 
-0.0243435 -0.0157395 0.0 
-0.0129357 0.000811116 0.0 
-0.0186453 -0.00134682 0.0 
-0.0336095 0.00988084 0.0 
-0.0315741 -0.0448378 0.0 
0.0560535 0.0359612 0.0 
-0.0255415 -0.0278167 0.0 
-0.0500107 -0.0660583 0.0 
0.252759 0.152525 0.0 
-0.0486705 -0.0203108 0.0 
-0.0415687 -0.0305072 0.0 
-0.036906 -0.0601467 0.0 
-0.0293308 -0.0965787 0.0 
0.0692035 0.0175603 0.0 
0.433575 -0.0648105 0.0 
0.175548 -0.0128174 0.0 
-0.126297 -0.014531 0.0 
0.0756343 0.134575 0.0 
-0.0521352 0.146658 0.0 
-0.0418487 -0.0397132 0.0 
0.0632946 -0.112683 0.0 
-0.0343051 0.00292215 0.0 
0.0715043 0.123252 0.0 
0.0601125 -0.124504 0.0 
0.154361 0.0983724 0.0 
-0.0316195 0.0144617 0.0 
-0.0753024 0.0159712 0.0 
-0.00464048 -0.00693221 0.0 
0.102356 0.0720563 0.0 
0.103979 -0.0116441 0.0 
0.0131445 0.0535351 0.0 
-0.0101339 0.00662203 0.0 
0.262313 0.150619 0.0 
-0.0425737 -0.00550021 0.0 
0.160254 0.145982 0.0 
-0.0544984 -0.0433197 0.0 
-0.0251382 0.126505 0.0 
-0.0356954 -0.0249149 0.0 
-0.00503841 0.0708043 0.0 
-0.0424298 -0.0145248 0.0 
0.10593 0.157419 0.0 
1.0545 -0.0165791 0.0 
1.02287 -0.347433 0.0 
0.491223 -0.24179 0.0 
0.450626 -0.224799 0.0 
0.683321 -0.29419 0.0 
0.683614 -0.305543 0.0 
0.115922 0.176508 0.0 
0.0448579 0.0311376 0.0 
0.885845 -0.0487991 0.0 
0.0381357 -0.174752 0.0 
0.967511 -0.38191 0.0 
0.361581 -0.200284 0.0 
-0.000300326 0.220287 0.0 
-0.0128435 0.0165485 0.0 
0.0401255 0.050547 0.0 
-0.00602515 -0.130712 0.0 
0.0118147 0.0686545 0.0 
-0.0136914 0.0244025 0.0 
0.161894 0.184724 0.0 
0.034807 0.105775 0.0 
-0.0165327 -0.0073917 0.0 
0.0403257 0.124574 0.0 
-0.0444326 0.00650694 0.0 
-0.0208089 0.00816692 0.0 
-0.0437044 0.0119869 0.0 
0.0176609 0.0443196 0.0 
0.187798 0.173479 0.0 
0.0145619 0.0940354 0.0 
-0.080914 0.0350218 0.0 
0.103939 0.0463357 0.0 
-0.0407534 -0.104602 0.0 
0.190624 0.150414 0.0 
0.0818132 0.191391 0.0 
-0.0207358 0.00910005 0.0 
-0.134707 -0.042332 0.0 
-0.0511624 0.0151867 0.0 
0.00319224 0.125225 0.0 
0.00591773 -0.171595 0.0 
0.124084 0.0873903 0.0 
-0.0501494 0.00142545 0.0 
0.0704402 0.0695082 0.0 
-0.105757 -0.0252648 0.0 
-0.00102824 0.000447 0.0 
0.00919984 0.0109476 0.0 
-0.0190971 -0.167003 0.0 
-0.17308 0.0787373 0.0 
0.227737 0.0413234 0.0 
-0.0286615 -0.0886349 0.0 
-0.00631674 0.00285672 0.0 
0.00555039 0.0609397 0.0 
-0.0204663 0.0287588 0.0 
0.0169126 0.150094 0.0 
0.0642155 -0.168729 0.0 
0.51551 -0.0444177 0.0 
0.0247682 0.0905073 0.0 
0.0986363 0.11285 0.0 
0.0298864 0.0391305 0.0 
-0.0228509 -0.0780812 0.0 
0.0144754 -0.139667 0.0 
0.0834886 0.177159 0.0 
0.00216784 0.00653015 0.0 
0.0311199 0.0430963 0.0 
-0.00916355 -0.0371223 0.0 
0.0300694 0.0531052 0.0 
-0.020351 0.0872355 0.0 
0.0234495 0.136327 0.0 
0.167714 0.184266 0.0 
-0.000688065 0.112521 0.0 
0.0446516 0.0656067 0.0 
0.109639 0.146146 0.0 
0.240876 0.164011 0.0 
0.209888 0.125542 0.0 
-0.0351383 -0.0797828 0.0 
-0.0342777 -0.00353517 0.0 
0.24567 0.0903264 0.0 
0.00323543 0.139766 0.0 
-0.200834 0.0797254 0.0 
-0.0289996 -0.0208324 0.0 
0.114035 0.128056 0.0 
0.0855726 -0.0565157 0.0 
-0.0560456 0.0147038 0.0 
-0.00852414 0.00371854 0.0 
0.0995284 0.0148624 0.0 
0.064177 0.1885 0.0 
0.146326 0.0526443 0.0 
0.475286 0.00253695 0.0 
0.0613202 0.113558 0.0 
0.124835 0.18923 0.0 
0.045938 0.139952 0.0 
0.0376827 0.156323 0.0 
-0.00777733 0.0780838 0.0 
0.189172 -0.159088 0.0 
-0.0459584 -0.00410822 0.0 
0.163268 0.171632 0.0 
-0.0330516 0.226665 0.0 
0.0307947 -0.173635 0.0 
-0.00145157 0.000308355 0.0 
-0.0396869 0.137375 0.0 
-0.00333444 0.0698257 0.0 
-0.0521565 0.0101574 0.0 
0.150596 -0.0243872 0.0 
0.0653331 0.161358 0.0 
0.726769 -0.0400267 0.0 
0.0181636 0.12394 0.0 
0.136407 -0.0110517 0.0 
0.0247723 -0.159219 0.0 
-0.127135 0.213276 0.0 
-0.130443 0.220301 0.0 
0.230015 -0.109988 0.0 
-0.00394301 0.000678543 0.0 
-0.0300785 0.0654868 0.0 
0.074017 0.0958475 0.0 
-0.0970164 0.0803125 0.0 
0.975943 0.012144 0.0 
-0.0545455 0.159688 0.0 
0.0756368 0.170809 0.0 
-0.0112554 -0.019821 0.0 
-0.0989371 0.184773 0.0 
0.183087 0.0714948 0.0 
-0.0268708 0.107995 0.0 
-0.0190396 0.217013 0.0 
0.243373 0.125743 0.0 
0.252224 0.132365 0.0 
0.17849 0.171065 0.0 
-0.0259005 -0.0855366 0.0 
-0.0157326 0.048005 0.0 
0.331209 0.066178 0.0 
0.0724742 0.145731 0.0 
0.116907 0.185355 0.0 
-0.0117747 0.00301558 0.0 
0.0295262 0.0320282 0.0 
0.0252832 0.211129 0.0 
-0.0397345 0.0236078 0.0 
-0.0109232 -0.0129308 0.0 
-0.0525495 0.0388574 0.0 
0.00578358 0.059536 0.0 
0.0125471 0.10764 0.0 
-0.00366388 0.0020621 0.0 
-0.015143 -0.0461179 0.0 
-0.00247874 0.00137067 0.0 
-0.0339213 -0.0105979 0.0 
-0.000146535 7.60971e-05 0.0 
-0.027312 -0.00167721 0.0 
0.0292322 0.0391577 0.0 
-0.0296895 0.00631008 0.0 
-0.0259224 0.011844 0.0 
-0.0205838 0.0116111 0.0 
0.0323271 0.167104 0.0 
-0.0260882 -0.00841416 0.0 
-0.0643846 0.227692 0.0 
-0.0125328 -0.102707 0.0 
-0.0279699 0.00980722 0.0 
0.0100667 -0.171148 0.0 
-0.0235416 -0.134044 0.0 
0.0441968 0.0812336 0.0 
-0.0658876 0.0946123 0.0 
-0.0423485 0.0178049 0.0 
0.0862928 0.0426091 0.0 
-0.0310714 -0.0183463 0.0 
-0.00598422 0.00184619 0.0 
-0.0826193 -0.0387321 0.0 
-0.0259465 0.00791937 0.0 
-0.0408737 -0.0506144 0.0 
-0.0419376 0.124242 0.0 
-0.0100277 -0.00292519 0.0 
0.0267372 0.0621325 0.0 
-0.0198533 0.00645106 0.0 
0.182718 0.149058 0.0 
-0.0481832 -0.0758758 0.0 
-0.0182526 0.00760063 0.0 
-0.0293547 0.0113751 0.0 
-0.022307 0.00928249 0.0 
0.1555 0.13287 0.0 
0.0320827 0.0279122 0.0 
0.00118498 -0.100691 0.0 
-0.00799665 0.00327742 0.0 
-0.0550243 0.0170835 0.0 
-0.0232755 0.00409446 0.0 
-0.0541435 0.0160702 0.0 
0.00351779 0.0574853 0.0 
0.196176 0.111662 0.0 
-0.0496609 0.0168428 0.0 
-2.76e-05 1.2986e-05 0.0 
-0.0108707 0.00445347 0.0 
-0.0120635 0.00533403 0.0 
-0.0075108 0.00370868 0.0 
0.0497232 0.210531 0.0 
-0.0350496 0.0160914 0.0 
-0.0143879 0.00458331 0.0 
-0.0264453 0.00197237 0.0 
-0.0456975 0.0156362 0.0 
-0.0157341 0.00740406 0.0 
0.000322309 -0.0119232 0.0 
-0.0359878 0.0143229 0.0 
-2.82964e-05 1.1471e-05 0.0 
-0.0181853 0.10148 0.0 
0.0747256 0.200555 0.0 
-0.0571362 0.0167777 0.0 
0.108541 -0.168641 0.0 
-0.0350472 0.131145 0.0 
0.245363 -0.160338 0.0 
0.176852 -0.0796993 0.0 
0.0379178 0.0141025 0.0 
0.267729 -0.160432 0.0 
0.049358 -0.0420775 0.0 
-0.130355 0.0525587 0.0 
0.0480355 -0.000519803 0.0 
-0.124685 0.0112521 0.0 
-0.0675346 -0.0331181 0.0 
0.0431249 0.175283 0.0 
-0.0451327 0.0145102 0.0 
-0.127561 0.204595 0.0 
0.00029181 -0.0957146 0.0 
-0.0336487 0.0127496 0.0 
0.0158751 0.18743 0.0 
-0.0544414 0.207573 0.0 
0.160976 -0.137758 0.0 
-0.100161 0.0137237 0.0 
-0.106076 0.139663 0.0 
0.0223847 0.0525609 0.0 
0.0136479 0.0405032 0.0 
0.284421 -0.161079 0.0 
0.244261 0.167685 0.0 
0.0721343 -0.135536 0.0 
-0.0518346 0.0175896 0.0 
0.310484 0.128937 0.0 
-0.0171816 0.00708936 0.0 
-0.057734 0.0175451 0.0 
-0.0522833 0.013175 0.0 
-0.0441048 -0.0301049 0.0 
-0.0217478 -0.0923646 0.0 
1.18164 -0.0366749 0.0 
-0.141496 0.228424 0.0 
0.0551044 0.0884605 0.0 
0.0080911 0.0635381 0.0 
0.191511 -0.14064 0.0 
-0.00300135 0.0833377 0.0 
0.0148471 0.0269997 0.0 
-0.0637125 0.0226773 0.0 
-0.0545635 0.0270357 0.0 
-5.48981e-05 1.60296e-05 0.0 
-0.0048099 0.0263389 0.0 
0.0336663 -0.133593 0.0 
0.0980504 -0.116842 0.0 
-0.143469 -0.0557386 0.0 
0.206258 -0.000631106 0.0 
0.0973518 -0.174529 0.0 
0.0045862 0.0705084 0.0 
0.0142126 0.17756 0.0 
-0.149459 0.21486 0.0 
0.127574 0.0790612 0.0 
-0.00150525 0.000483658 0.0 
0.141926 0.0174815 0.0 
0.00712193 0.0912611 0.0 
-0.00512263 -0.0870393 0.0 
-0.0473874 0.0171255 0.0 
-0.129427 -0.149149 0.0 
-0.00252361 0.000971939 0.0 
-0.0651812 0.0247119 0.0 
0.0743815 -0.0894906 0.0 
-0.00166888 0.000705438 0.0 
0.043992 0.200616 0.0 
0.667768 -0.0285298 0.0 
0.0961102 0.0917699 0.0 
-0.00400168 0.155159 0.0 
0.0524625 0.141245 0.0 
-0.0083859 0.0928383 0.0 
-0.0492475 0.13553 0.0 
-0.107166 0.230609 0.0 
-0.0284475 0.00901011 0.0 
0.0442915 0.184457 0.0 
-0.0640616 0.155597 0.0 
0.0260616 0.196098 0.0 
-0.0113622 0.109809 0.0 
0.0275405 0.00524358 0.0 
0.0240087 0.0405008 0.0 
0.013965 0.0714393 0.0 
0.00495209 0.0707995 0.0 
-0.0551106 0.00677481 0.0 
0.0183667 0.00684325 0.0 
0.0446557 0.0888411 0.0 
0.0600416 0.17415 0.0 
0.186863 0.0221524 0.0 
0.107376 0.19812 0.0 
0.211393 0.0394666 0.0 
0.0587975 0.112639 0.0 
-0.0705835 0.233317 0.0 
-0.0175819 0.00719502 0.0 
0.0169355 0.0124314 0.0 
0.00546693 0.0815105 0.0 
0.0214985 0.0486642 0.0 
-0.117744 0.165675 0.0 
-3.66348e-05 -0.0363519 0.0 
0.0193084 -0.0131197 0.0 
0.0715826 0.0392436 0.0 
-0.10372 -0.0943352 0.0 
-0.0603204 -0.15245 0.0 
-0.0088729 0.182907 0.0 
-0.0519348 0.213143 0.0 
-3.28944e-05 5.65085e-06 0.0 
-0.00171074 0.0356692 0.0 
-0.0395234 0.126741 0.0 
-0.0131843 0.144201 0.0 
-0.00557326 -0.0242001 0.0 
-0.0361036 0.121531 0.0 
-0.0535685 -0.14787 0.0 
-0.0536173 -0.00729634 0.0 
-0.0399785 0.0916196 0.0 
0.0609013 -0.163088 0.0 
-0.0952081 -0.125908 0.0 
0.157652 0.0627654 0.0 
0.0610602 -0.0243607 0.0 
1.99106e-21 -6.5541e-22 0.0 
0.101581 -0.14138 0.0 
-0.0558943 0.00235727 0.0 
-0.0176263 0.0080409 0.0 
-0.0292055 0.0627918 0.0 
0.0292909 0.113587 0.0 
0.0167043 0.0582446 0.0 
-0.127805 0.116791 0.0 
0.0158881 0.00656844 0.0 
0.172749 -0.104142 0.0 
-0.0365763 0.0158476 0.0 
0.00112657 0.0703055 0.0 
0.169049 0.108502 0.0 
0.153936 -0.153485 0.0 
0.00573485 0.207065 0.0 
-0.0122512 0.00262787 0.0 
-0.103033 -0.0737536 0.0 
0.0368377 0.0177643 0.0 
-0.0233387 0.00978788 0.0 
-0.00455079 -0.0559321 0.0 
0.262024 -0.0726836 0.0 
0.0234984 0.00167856 0.0 
-0.098785 0.0409391 0.0 
0.11626 0.169017 0.0 
0.0146207 0.0108844 0.0 
0.0345271 0.00822196 0.0 
0.258131 -0.064478 0.0 
-0.0290114 -0.0592122 0.0 
0.138242 -0.0549467 0.0 
-0.00306738 -0.102792 0.0 
0.00760252 0.166368 0.0 
-0.146098 0.165837 0.0 
-0.0779415 0.203455 0.0 
-0.00198128 0.0947028 0.0 
0.0386619 -0.124928 0.0 
-0.00685544 0.0913464 0.0 
0.0869463 0.0468243 0.0 
0.0727597 -0.113843 0.0 
0.00978393 0.047361 0.0 
0.28263 0.0787685 0.0 
0.0229996 0.0181029 0.0 
-0.0382086 -0.126863 0.0 
0.136308 0.114611 0.0 
-0.017846 -0.0147728 0.0 
0.115691 0.189871 0.0 
0.0143681 0.054106 0.0 
0.0648219 0.00122882 0.0 
-0.100777 0.215961 0.0 
-2.95191e-05 7.62252e-06 0.0 
-0.0167061 0.0469094 0.0 
-0.044368 0.0215329 0.0 
-0.00117783 0.069401 0.0 
-0.0599876 0.0711298 0.0 
0.025775 -0.0741646 0.0 
0.374409 0.125781 0.0 
-0.0280334 -0.00506748 0.0 
-0.00499177 0.0709614 0.0 
-0.00606349 -0.0182796 0.0 
0.00463699 0.0970506 0.0 
0.0374388 -0.125244 0.0 
-0.00516814 0.00241009 0.0 
-0.0215709 0.0962507 0.0 
-0.0197823 -0.0285225 0.0 
-0.0377898 0.018653 0.0 
0.10016 0.0174095 0.0 
0.12444 0.162592 0.0 
-0.0335369 0.0209277 0.0 
-0.00517956 0.049655 0.0 
-0.0124759 -0.0934589 0.0 
0.0055314 0.0195555 0.0 
-0.0821279 0.22154 0.0 
-0.00195111 0.000591038 0.0 
0.137586 -0.00329945 0.0 
0.0288468 0.0237635 0.0 
-0.0835683 -0.0233919 0.0 
-0.182189 0.069935 0.0 
-0.165815 -0.0557171 0.0 
-0.0104881 0.0878258 0.0 
-0.0625889 0.0193062 0.0 
-0.036815 -0.0677041 0.0 
-0.0709415 -0.0304794 0.0 
-0.002802 0.00279984 0.0 
-0.0837823 0.189333 0.0 
-0.186485 0.11098 0.0 
-0.0445919 -0.159089 0.0 
-0.110188 -0.00611299 0.0 
-0.0186813 0.007753 0.0 
0.000538338 0.0586734 0.0 
-0.0109862 0.0685675 0.0 
-0.0378737 -0.0383701 0.0 
0.122694 0.1318 0.0 
-0.0083741 0.0168188 0.0 
0.323839 0.143491 0.0 
-0.0596329 0.0219922 0.0 
-0.092651 -0.103733 0.0 
-0.0231658 0.137694 0.0 
-0.185487 -0.0534361 0.0 
0.877636 -0.00120167 0.0 
-0.011384 0.0338669 0.0 
-0.0164709 -0.0943684 0.0 
-0.028364 -0.0927733 0.0 
0.0247824 0.0757121 0.0 
0.78182 0.0252487 0.0 
-0.0383398 0.147887 0.0 
0.0724092 0.0146871 0.0 
-0.0975025 0.0422054 0.0 
-0.164565 0.0359251 0.0 
-0.114168 -0.0383579 0.0 
-0.0904609 -0.0774205 0.0 
-0.0744454 0.0191358 0.0 
-0.0423573 0.0187939 0.0 
-0.0792298 0.169706 0.0 
-0.0252583 0.00598291 0.0 
0.0157095 0.0622697 0.0 
0.415378 -0.189948 0.0 
-0.0659747 0.0248559 0.0 
-0.201434 -0.0300096 0.0 
-0.201874 0.0585767 0.0 
-0.10684 -0.10343 0.0 
-0.0134744 0.00587383 0.0 
-0.096579 -0.0138005 0.0 
-0.0465954 0.116158 0.0 
0.0856318 -0.0366056 0.0 
0.00578119 0.0121011 0.0 
-0.0375077 -0.091666 0.0 
-0.0466637 -0.0906434 0.0 
0.0167226 0.0128503 0.0 
0.229003 -0.179336 0.0 
0.245212 -0.0153214 0.0 
0.00356527 0.0172679 0.0 
0.102703 -0.120876 0.0 
0.31989 -0.184566 0.0 
0.061092 0.0383074 0.0 
-0.0214058 0.00782402 0.0 
0.0133607 0.0427487 0.0 
0.0380967 0.00880159 0.0 
-0.162981 0.127016 0.0 
-0.0252213 -0.153024 0.0 
-0.00121804 0.000490287 0.0 
-0.0168424 0.108757 0.0 
-0.0732101 0.0253033 0.0 
0.0565138 -0.00791456 0.0 
0.135708 -0.130504 0.0 
-0.0224317 -0.0208116 0.0 
-0.00999424 0.21713 0.0 
-0.0948315 0.234918 0.0 
-0.0331569 -0.170749 0.0 
0.277569 -0.176192 0.0 
0.0151226 -0.0286889 0.0 
0.207312 -0.0588662 0.0 
0.0191622 0.0353369 0.0 
-0.0481805 -0.0654491 0.0 
-0.0276166 0.19512 0.0 
0.204041 -0.147652 0.0 
-0.0428502 0.00963921 0.0 
1.74927e-21 -8.71469e-22 0.0 
0.130171 -0.0989816 0.0 
-0.0734757 -0.103909 0.0 
-0.140031 -0.00481061 0.0 
0.0512479 -0.149984 0.0 
-0.0546713 0.143193 0.0 
-0.0194027 0.0353729 0.0 
-0.0613709 -0.0367637 0.0 
-0.131456 0.124026 0.0 
-0.00417437 -0.096794 0.0 
-0.0384809 -0.0965921 0.0 
0.00127601 0.0465562 0.0 
-0.0751054 0.0656384 0.0 
-0.0643017 -0.0720819 0.0 
-0.0629213 -0.00838189 0.0 
-0.0558119 -0.059673 0.0 
0.0253862 0.15278 0.0 
-0.0270614 0.00539113 0.0 
-0.123694 -0.0877371 0.0 
0.0243365 0.0125345 0.0 
-0.00382008 0.00154861 0.0 
0.118438 -0.174391 0.0 
-0.0825175 -0.0580407 0.0 
0.00976615 0.181598 0.0 
0.0347363 0.0252141 0.0 
-0.158888 -0.0366633 0.0 
0.307408 -0.184217 0.0 
0.01931 0.00799513 0.0 
0.0911779 -0.159713 0.0 
-0.00906023 0.00661539 0.0 
-0.0287765 0.0388217 0.0 
0.117949 -0.149393 0.0 
-0.0626418 0.0280236 0.0 
0.0634247 -0.172815 0.0 
-0.0676007 0.156207 0.0 
-0.1872 0.115518 0.0 
-0.144668 -0.102814 0.0 
-0.168241 -0.0775697 0.0 
-0.137532 0.142975 0.0 
-0.158377 0.0461439 0.0 
0.0202109 0.199515 0.0 
-0.0889109 -0.0545646 0.0 
-0.179933 0.0091986 0.0 
-0.0133853 0.0678925 0.0 
0.00669854 -0.0530855 0.0 
0.379373 -0.18869 0.0 
0.10331 -0.159454 0.0 
-0.0182953 0.166339 0.0 
1.17902 -0.230658 0.0 
-0.00744383 0.198706 0.0 
-0.111552 0.213557 0.0 
0.0358565 -0.10463 0.0 
-0.0552137 0.136624 0.0 
-0.0507392 0.0534826 0.0 
0.0185293 -0.109364 0.0 
0.00714596 0.00883735 0.0 
-0.000313521 0.000142731 0.0 
-0.0948632 0.21384 0.0 
0.0392793 -0.0214863 0.0 
-0.0206145 -0.0562495 0.0 
-0.0641544 0.0169101 0.0 
-0.115027 0.184266 0.0 
0.0132789 -0.174443 0.0 
-0.00044899 0.0123309 0.0 
-0.0510592 -0.162155 0.0 
-0.137572 -0.0323466 0.0 
0.424809 -0.175051 0.0 
-0.0782302 -0.1665 0.0 
-0.0020011 0.000699648 0.0 
-0.0031306 -0.10757 0.0 
0.447919 -0.0856155 0.0 
-0.0601085 -0.0824685 0.0 
-0.00367752 0.0893398 0.0 
0.0667028 0.19327 0.0 
-0.121924 -0.121776 0.0 
0.0342984 0.00184959 0.0 
-0.161031 -0.0128128 0.0 
-0.199025 -0.0210732 0.0 
0.0259527 0.0255974 0.0 
0.00195817 -0.109866 0.0 
0.973668 -0.0353294 0.0 
0.0118791 0.0504096 0.0 
0.439075 0.119978 0.0 
0.00733037 0.0109306 0.0 
0.0125163 0.0140028 0.0 
0.0600459 -0.114076 0.0 
-0.0235529 -0.0119407 0.0 
-0.0717988 0.227457 0.0 
0.00127952 0.128296 0.0 
-0.187587 0.00531638 0.0 
-0.0452538 -0.108076 0.0 
-0.0332558 0.172389 0.0 
-0.00277453 0.0769302 0.0 
0.32259 0.148286 0.0 
0.00507152 0.00180054 0.0 
-0.0207106 -0.0968179 0.0 
-0.0690527 -0.0605868 0.0 
0.015305 -0.0999237 0.0 
-0.100653 -0.158753 0.0 
-0.103917 -0.0576369 0.0 
-0.136803 0.059838 0.0 
-0.0122921 -0.121407 0.0 
-0.0541717 -0.048657 0.0 
0.010756 -0.0821995 0.0 
-0.119468 -0.0560402 0.0 
-0.0360658 -0.0899944 0.0 
0.0181337 0.0350783 0.0 
-0.0163633 0.091729 0.0 
-0.150001 0.00564598 0.0 
-0.0698655 0.0278614 0.0 
-0.0933247 -0.0598589 0.0 
0.0223592 -0.0350636 0.0 
0.011973 0.0503228 0.0 
-0.0850595 -0.00215073 0.0 
0.0624791 -0.14353 0.0 
-0.126488 -0.0691195 0.0 
0.42322 -0.191064 0.0 
-0.053496 -0.122127 0.0 
-0.103241 -0.082494 0.0 
0.0418911 0.065588 0.0 
-0.0139822 0.0846674 0.0 
-0.0791895 -0.0786828 0.0 
0.0926108 0.00213233 0.0 
-0.0172407 0.0185138 0.0 
0.0118069 -0.107182 0.0 
-0.0331801 0.113058 0.0 
0.0257452 0.0477495 0.0 
0.0834179 0.143487 0.0 
0.0366491 -0.113406 0.0 
-0.0626897 0.00260701 0.0 
-0.194159 0.0363394 0.0 
-0.0681661 0.013222 0.0 
-0.083252 -0.106114 0.0 
0.0319672 0.0254369 0.0 
-0.0109142 0.0943933 0.0 
-0.166388 0.141592 0.0 
-0.00528188 -0.0125428 0.0 
-0.0530511 -0.0335109 0.0 
-0.0848336 0.139829 0.0 
-0.0614294 0.0228025 0.0 
-0.0569032 0.0193049 0.0 
0.00226789 0.00734747 0.0 
-0.122978 0.229163 0.0 
-0.0322103 -0.0942243 0.0 
0.0128631 0.0098353 0.0 
-0.0191236 0.20476 0.0 
-0.0582665 0.20286 0.0 
-0.00940293 -0.173496 0.0 
0.465743 0.0480612 0.0 
-0.199447 -0.0468161 0.0 
-0.0225899 0.0763423 0.0 
-0.0332234 -0.0169538 0.0 
-0.0550547 0.136841 0.0 
0.299686 -0.172864 0.0 
0.0751552 -0.122169 0.0 
-0.0328503 0.121342 0.0 
0.371759 -0.0373716 0.0 
-0.176415 0.0380223 0.0 
-0.0103435 -0.0717113 0.0 
-0.0568628 0.013731 0.0 
-0.0301723 0.214784 0.0 
0.0148978 -0.098551 0.0 
0.0250045 -0.103954 0.0 
-0.00532572 0.00222247 0.0 
-0.0364074 -0.109268 0.0 
-0.00864021 0.00399325 0.0 
-0.0669872 0.181542 0.0 
-0.0120307 -0.0969892 0.0 
-0.107889 0.231362 0.0 
0.352991 0.109749 0.0 
-0.0815662 -0.0731773 0.0 
-0.0486007 0.0196353 0.0 
-0.206874 0.0416619 0.0 
-0.0676787 0.0224407 0.0 
-0.106545 -0.160698 0.0 
-0.0309774 0.0167451 0.0 
-0.0325963 -0.100844 0.0 
0.0693537 -0.130046 0.0 
-0.0193589 0.03378 0.0 
0.00423468 -0.0452946 0.0 
0.317933 -0.0632619 0.0 
-0.0416366 0.016352 0.0 
0.00837567 0.0141611 0.0 
-0.139193 0.189998 0.0 
0.022358 0.022375 0.0 
0.184831 0.0294025 0.0 
-0.0406899 0.0384033 0.0 
0.0667969 0.204524 0.0 
-0.025239 0.0261616 0.0 
-0.0835802 0.123171 0.0 
0.109752 0.100278 0.0 
0.00485346 0.0566799 0.0 
0.136283 0.0718633 0.0 
-0.081185 -0.0220439 0.0 
0.0132676 0.068125 0.0 
0.529027 0.107407 0.0 
0.0288202 0.0134741 0.0 
0.000839493 -0.00406203 0.0 
0.237144 0.0651211 0.0 
0.0102599 0.0192876 0.0 
-0.0285306 0.118338 0.0 
0.0100075 0.0363727 0.0 
-0.138857 0.22547 0.0 
-0.033518 0.0111545 0.0 
-0.0160966 -0.0643106 0.0 
-0.029608 -0.0126246 0.0 
-0.0219399 0.0159994 0.0 
-0.0587977 0.100959 0.0 
0.0234919 0.0405354 0.0 
-0.168459 -0.0514816 0.0 
-0.00560347 -0.0320973 0.0 
-0.0304429 0.117582 0.0 
-0.151163 0.113028 0.0 
-0.0726359 0.0889546 0.0 
-0.037202 0.226062 0.0 
-0.0204539 -0.152151 0.0 
-0.0965358 -0.120779 0.0 
-0.0369403 0.0106444 0.0 
-0.00937234 0.0866678 0.0 
-0.181272 -0.0857389 0.0 
-0.0728575 0.116198 0.0 
-0.0568473 0.143726 0.0 
-0.0225688 0.104942 0.0 
-0.0707535 0.056137 0.0 
0.0120009 0.0461054 0.0 
0.0260819 0.20888 0.0 
0.334561 -0.131045 0.0 
-0.178623 -0.101725 0.0 
-0.0364479 0.0126293 0.0 
-0.137388 0.0354814 0.0 
-0.0832286 0.153282 0.0 
0.288209 0.103176 0.0 
-0.0659037 0.017928 0.0 
-0.0442043 0.0558364 0.0 
0.0385632 0.0151218 0.0 
0.398556 0.0704047 0.0 
0.000551797 0.0225629 0.0 
0.0335237 -0.169908 0.0 
-0.157859 0.213804 0.0 
-0.0613515 0.0130282 0.0 
-0.194705 -0.0675816 0.0 
-0.0295073 0.11174 0.0 
0.0279859 -0.0161463 0.0 
0.0472918 -0.0654775 0.0 
0.01254 -0.00905276 0.0 
0.109001 -0.029452 0.0 
-0.0635011 -0.138026 0.0 
-0.0295044 0.0110884 0.0 
-0.0280921 0.0229409 0.0 
-0.0109107 0.123664 0.0 
0.0096172 0.00613686 0.0 
0.218389 -0.165312 0.0 
0.0340251 -0.0403648 0.0 
-0.00317313 0.160926 0.0 
0.0176288 -0.104661 0.0 
-0.0132722 0.0168212 0.0 
-0.0181898 0.0070682 0.0 
-0.0456143 -0.0770333 0.0 
-0.0101497 0.0308558 0.0 
-0.005557 0.0130102 0.0 
-0.0283737 0.00639639 0.0 
0.0217984 0.034338 0.0 
0.0299031 0.0116444 0.0 
0.03706 -0.108563 0.0 