<VTKFile type="UnstructuredGrid" version="0.1" byte_order="LittleEndian">
  <UnstructuredGrid>
    <Piece NumberOfPoints="18821" NumberOfCells="37555">
      <Points>
        <DataArray type = "Float64" NumberOfComponents="3" format="ascii">
5.32789 2.98741 0.0 
5.24662 3.0109 0.0 
5.3031 3.04608 0.0 
5.29712 3.03864 0.0 
5.28001 3.0266 0.0 
5.3615 3.05614 0.0 
5.28497 2.99161 0.0 
5.31476 3.03952 0.0 
5.24999 2.99626 0.0 
5.34024 3.04885 0.0 
5.37218 3.04336 0.0 
5.31458 3.01029 0.0 
5.289 3.04232 0.0 
5.29663 3.03102 0.0 
5.2676 3.01949 0.0 
5.29133 3.02033 0.0 
5.27499 3.0085 0.0 
5.34872 3.02418 0.0 
5.31438 3.02622 0.0 
5.33799 3.03641 0.0 
4.1339 3.005 0.0 
4.11852 2.99926 0.0 
8.89137 0.530439 0.0 
4.06997 2.98791 0.0 
3.68762 3.05826 0.0 
4.49508 2.92949 0.0 
3.63206 3.08358 0.0 
4.17413 3.01709 0.0 
3.60881 3.08705 0.0 
4.07224 2.99259 0.0 
3.63542 3.07531 0.0 
6.96579 1.6519 0.0 
8.5232 1.29421 0.0 
4.29111 3.08052 0.0 
4.28518 3.00865 0.0 
8.58546 1.93544 0.0 
3.63128 3.08098 0.0 
3.74364 3.04419 0.0 
4.22857 3.01097 0.0 
3.76033 3.0378 0.0 
3.62874 3.07653 0.0 
8.27866 1.78872 0.0 
4.53949 2.92355 0.0 
4.25571 3.06029 0.0 
8.56988 2.55395 0.0 
8.86021 1.41177 0.0 
3.64281 3.06777 0.0 
4.16651 3.01117 0.0 
4.17584 3.00808 0.0 
9.16117 0 0.0 
4.44778 2.94117 0.0 
5.33152 2.96011 0.0 
7.99069 2.64859 0.0 
5.16675 2.97249 0.0 
4.08873 2.98501 0.0 
4.42086 3.03475 0.0 
3.63968 3.082 0.0 
4.27236 3.07073 0.0 
4.15148 3.00977 0.0 
4.26138 2.92274 0.0 
7.84122 3.38246 0.0 
4.17412 2.99591 0.0 
4.23526 3.03161 0.0 
4.51435 2.98205 0.0 
4.14026 3.00148 0.0 
4.43823 3.03845 0.0 
4.4438 3.04676 0.0 
4.22857 3.00746 0.0 
5.06024 3.00491 0.0 
8.84019 1.82079 0.0 
5.123 2.96453 0.0 
7.52094 0 0.0 
3.8534 3.02461 0.0 
4.23175 2.99896 0.0 
4.40415 3.03903 0.0 
5.70029 1.95438 0.0 
6.98378 3.31858 0.0 
3.6814 3.05996 0.0 
6.50748 3.40485 0.0 
7.31779 1.56546 0.0 
4.53223 3.10118 0.0 
8.16081 2.04077 0.0 
4.68127 3.29372 0.0 
6.74105 2.73101 0.0 
4.88329 2.95502 0.0 
4.14942 3.00533 0.0 
5.21543 2.98279 0.0 
7.94915 1.82413 0.0 
4.17265 3.01394 0.0 
7.20372 3.04096 0.0 
4.46907 3.08665 0.0 
8.20707 2.2766 0.0 
8.00308 3.20919 0.0 
7.87196 0.82099 0.0 
9.48494 1.24426 0.0 
3.87452 3.04593 0.0 
3.95116 3.01078 0.0 
8.83243 2.17085 0.0 
9.70792 0 0.0 
4.25465 3.03724 0.0 
4.40363 2.85515 0.0 
8.26578 1.4305 0.0 
6.87618 3.44924 0.0 
3.6048 3.08614 0.0 
3.94892 3.01683 0.0 
8.2358 2.97027 0.0 
5.1411 2.61873 0.0 
3.70567 3.03714 0.0 
6.94143 0.797126 0.0 
8.19039 2.50786 0.0 
3.93874 3.01579 0.0 
4.348 3.00402 0.0 
4.42792 3.04222 0.0 
3.78212 3.04175 0.0 
8.31532 0.538324 0.0 
5.06541 2.99684 0.0 
8.39 2.09785 0.0 
3.57542 3.09782 0.0 
3.89359 3.00493 0.0 
4.63576 3.34871 0.0 
3.63259 3.06964 0.0 
4.3168 3.05967 0.0 
5.14026 2.35328 0.0 
8.06507 3.03526 0.0 
4.16352 2.99365 0.0 
7.27243 2.51406 0.0 
3.81466 3.02869 0.0 
3.88999 2.98452 0.0 
3.82091 3.01667 0.0 
6.08 2.58785 0.0 
5.17112 3.03403 0.0 
4.66003 2.59258 0.0 
3.97072 2.9815 0.0 
3.84897 2.99799 0.0 
3.88933 2.99164 0.0 
5.88358 2.88592 0.0 
4.79719 2.97007 0.0 
3.95917 2.99103 0.0 
3.96529 2.97456 0.0 
3.9143 2.97871 0.0 
5.2191 3.03634 0.0 
3.86668 2.99636 0.0 
3.59627 3.09031 0.0 
5.18011 2.95812 0.0 
3.84729 3.00434 0.0 
4.50728 2.74541 0.0 
4.00569 2.94371 0.0 
3.76692 2.99459 0.0 
4.62672 3.35471 0.0 
4.1707 3.0053 0.0 
4.51095 2.93995 0.0 
4.91802 2.46756 0.0 
3.58906 3.0781 0.0 
3.6542 3.04219 0.0 
4.64617 2.80239 0.0 
4.60187 2.78361 0.0 
5.05859 2.65252 0.0 
7.95402 3.45603 0.0 
6.41886 0.473965 0.0 
4.26979 2.81222 0.0 
6.78554 3.36605 0.0 
5.9491 2.84303 0.0 
9.48966 0.619326 0.0 
3.97566 3.015 0.0 
5.19086 3.03221 0.0 
6.52124 1.55357 0.0 
6.59366 3.35847 0.0 
5.07514 2.76036 0.0 
4.62875 2.75783 0.0 
4.90112 2.99907 0.0 
5.15904 3.03519 0.0 
7.62211 3.28099 0.0 
4.77006 2.80011 0.0 
3.79524 2.98907 0.0 
5.35877 2.52948 0.0 
5.17716 3.03019 0.0 
7.71463 1.53827 0.0 
4.45378 2.8481 0.0 
4.56834 2.80941 0.0 
3.88159 3.00424 0.0 
5.47682 2.72549 0.0 
6.54475 2.91081 0.0 
3.61599 3.07836 0.0 
4.94732 2.79475 0.0 
7.93239 1.25519 0.0 
4.61684 2.85774 0.0 
3.62022 3.07844 0.0 
5.13545 2.95454 0.0 
8.65862 0.976643 0.0 
5.11902 2.81168 0.0 
5.02805 2.82804 0.0 
4.27095 3.05776 0.0 
4.69398 2.81648 0.0 
6.297 2.9522 0.0 
5.42104 2.84069 0.0 
8.21899 2.67303 0.0 
5.03046 2.79026 0.0 
5.33245 2.83884 0.0 
6.11656 2.95075 0.0 
4.29743 2.98948 0.0 
6.58317 2.56535 0.0 
4.55329 2.76495 0.0 
3.59627 3.08549 0.0 
5.24001 2.81348 0.0 
4.47048 3.1678 0.0 
4.8945 2.81261 0.0 
3.70424 3.02465 0.0 
8.37315 2.45686 0.0 
5.23701 2.90482 0.0 
8.61443 0 0.0 
4.36829 2.87689 0.0 
3.58769 3.08923 0.0 
6.54545 3.02521 0.0 
6.31374 3.16786 0.0 
4.5975 2.82502 0.0 
3.60606 3.07315 0.0 
5.69024 2.8895 0.0 
5.33934 2.79464 0.0 
4.27651 2.77872 0.0 
5.55479 2.85838 0.0 
4.92525 2.63133 0.0 
7.85672 3.13601 0.0 
6.86805 2.90854 0.0 
4.92645 2.71577 0.0 
6.18362 2.89576 0.0 
3.69891 3.01619 0.0 
4.83455 2.72459 0.0 
4.85128 2.78491 0.0 
4.49679 2.8179 0.0 
4.19864 3.00365 0.0 
6.41859 2.95188 0.0 
3.80381 3.01695 0.0 
4.21506 2.99755 0.0 
3.86236 3.0113 0.0 
4.11157 3.0302 0.0 
5.12048 2.52078 0.0 
6.24668 3.31104 0.0 
7.43111 3.20931 0.0 
5.25247 2.67651 0.0 
5.16925 2.68684 0.0 
5.03412 2.90491 0.0 
5.85075 2.56766 0.0 
3.81842 3.0121 0.0 
7.22344 1.90012 0.0 
4.37609 2.74707 0.0 
4.8565 2.70153 0.0 
3.61788 3.08367 0.0 
4.1094 3.004 0.0 
5.98756 1.2673 0.0 
4.78631 2.63961 0.0 
7.46592 2.37997 0.0 
5.38491 2.15806 0.0 
4.00589 2.91032 0.0 
4.92325 0.347267 0.0 
6.40522 0 0.0 
6.83737 2.29564 0.0 
4.43546 2.75656 0.0 
9.10029 1.03237 0.0 
4.36554 2.78738 0.0 
6.35458 2.60707 0.0 
4.26536 3.00969 0.0 
6.17697 2.41979 0.0 
4.5449 2.70647 0.0 
3.67079 3.06815 0.0 
4.67108 2.68031 0.0 
3.87585 2.94453 0.0 
4.95969 2.90689 0.0 
4.14249 2.87624 0.0 
4.22754 3.01254 0.0 
5.80201 3.00544 0.0 
5.25334 2.97983 0.0 
5.03789 3.00469 0.0 
6.39823 3.21712 0.0 
4.00391 2.98514 0.0 
3.93348 2.93615 0.0 
7.84108 0.386331 0.0 
4.91302 3.02463 0.0 
5.0724 2.93979 0.0 
4.9975 2.57616 0.0 
7.75458 2.74676 0.0 
4.02478 2.98333 0.0 
4.88016 2.67502 0.0 
4.99706 2.6823 0.0 
3.9884 2.98268 0.0 
4.70142 2.7311 0.0 
3.64687 3.06987 0.0 
3.90295 3.01712 0.0 
4.21927 2.84603 0.0 
4.46839 2.77503 0.0 
7.03872 2.50756 0.0 
4.46001 2.7279 0.0 
6.63843 2.38715 0.0 
7.19964 2.7603 0.0 
4.17742 3.01127 0.0 
4.13568 2.8546 0.0 
3.73427 3.00363 0.0 
5.07304 3.01424 0.0 
6.14498 3.10519 0.0 
3.87272 2.98526 0.0 
4.77339 2.72684 0.0 
5.84972 2.34369 0.0 
5.00755 3.01308 0.0 
6.54978 2.17682 0.0 
4.67158 0 0.0 
3.63829 3.07733 0.0 
3.9467 2.96857 0.0 
4.51986 2.94376 0.0 
6.58226 3.47357 0.0 
4.26932 3.00046 0.0 
7.64532 2.9856 0.0 
4.40317 2.98033 0.0 
5.09562 3.00584 0.0 
5.95011 2.67668 0.0 
3.81226 2.97182 0.0 
7.04218 2.90972 0.0 
6.55723 3.21802 0.0 
8.06768 0 0.0 
5.23033 2.96106 0.0 
7.58202 3.50878 0.0 
4.25396 3.00698 0.0 
4.20795 3.0015 0.0 
5.0526 3.01794 0.0 
7.45537 2.10052 0.0 
5.25555 2.93862 0.0 
3.66545 3.06855 0.0 
7.68496 2.23057 0.0 
5.32454 2.9262 0.0 
4.43305 2.97264 0.0 
5.89427 2.99676 0.0 
3.80717 3.02012 0.0 
3.63767 3.08081 0.0 
3.76674 2.98131 0.0 
9.12174 1.72586 0.0 
9.20676 1.40777 0.0 
3.92046 2.99122 0.0 
5.28689 2.96356 0.0 
7.16374 3.3146 0.0 
7.49469 2.69028 0.0 
5.15993 3.01084 0.0 
5.47929 2.39231 0.0 
4.24431 3.03529 0.0 
8.04003 3.32477 0.0 
4.21469 3.0026 0.0 
4.46215 2.96092 0.0 
5.62735 2.54003 0.0 
3.79554 3.02469 0.0 
5.369 2.65214 0.0 
3.73452 3.01384 0.0 
7.7246 2.51235 0.0 
5.24834 2.59955 0.0 
6.04425 3.18633 0.0 
4.00421 2.92774 0.0 
7.91707 2.8973 0.0 
8.60272 2.1987 0.0 
3.74961 3.02 0.0 
4.77565 2.69386 0.0 
4.31807 3.04422 0.0 
4.50631 3.07128 0.0 
4.82246 2.56525 0.0 
6.72693 3.21274 0.0 
4.23055 3.02723 0.0 
3.90693 2.97064 0.0 
6.42193 1.90994 0.0 
4.29148 2.8793 0.0 
6.69283 2.9024 0.0 
4.04753 2.97756 0.0 
3.63007 3.05238 0.0 
6.82323 1.95503 0.0 
6.24243 3.09427 0.0 
3.68219 3.03147 0.0 
3.87367 2.97401 0.0 
6.86331 3.25519 0.0 
4.0508 2.94506 0.0 
7.16278 2.23254 0.0 
4.15788 3.00314 0.0 
5.74391 2.68745 0.0 
6.10882 3.25045 0.0 
3.74336 3.05942 0.0 
6.94247 1.28506 0.0 
4.4336 3.05237 0.0 
6.32099 3.26576 0.0 
6.23179 3.19516 0.0 
8.26126 1.05268 0.0 
6.16504 2.13337 0.0 
6.18345 3.24975 0.0 
6.12759 3.18277 0.0 
4.74592 2.97373 0.0 
3.79028 3.02279 0.0 
3.67459 3.06147 0.0 
5.15985 2.89979 0.0 
6.05633 3.017 0.0 
6.15948 3.03221 0.0 
3.76684 3.01754 0.0 
3.99891 2.95976 0.0 
3.82998 3.00306 0.0 
3.71229 3.03858 0.0 
4.02075 2.97583 0.0 
4.62782 2.7136 0.0 
3.77008 3.02159 0.0 
4.02942 2.97026 0.0 
3.58698 3.09527 0.0 
3.58174 3.08851 0.0 
6.94905 2.72401 0.0 
6.62307 3.15057 0.0 
6.79797 2.53512 0.0 
3.99803 2.9717 0.0 
3.84728 2.99112 0.0 
3.57845 3.10016 0.0 
3.72724 3.03296 0.0 
3.77875 3.02915 0.0 
5.19577 2.85815 0.0 
6.6565 3.26742 0.0 
4.3113 2.82791 0.0 
7.90493 2.11344 0.0 
3.81822 3.00036 0.0 
8.70007 2.44257 0.0 
4.21831 2.90057 0.0 
4.07631 2.9736 0.0 
3.78197 3.02317 0.0 
4.01985 2.96076 0.0 
4.09994 2.93542 0.0 
3.81351 3.00909 0.0 
5.93621 2.96634 0.0 
3.798 3.01291 0.0 
3.70406 3.05826 0.0 
4.50521 3.0561 0.0 
6.40133 2.79835 0.0 
3.78396 3.01729 0.0 
3.79109 3.00988 0.0 
4.29919 2.9181 0.0 
4.39748 3.02957 0.0 
5.16392 3.01423 0.0 
4.32363 3.01009 0.0 
3.71342 3.05673 0.0 
4.60044 3.35005 0.0 
4.46569 3.14515 0.0 
5.16728 3.0104 0.0 
4.16356 3.00726 0.0 
5.64872 2.81664 0.0 
4.2208 3.00038 0.0 
4.39403 2.97267 0.0 
4.65598 2.91854 0.0 
3.72545 3.05607 0.0 
4.21776 2.87586 0.0 
4.23047 3.01613 0.0 
4.24749 3.04192 0.0 
4.47922 3.09361 0.0 
3.70049 3.06528 0.0 
4.46245 2.97068 0.0 
4.37825 2.81895 0.0 
4.40879 3.07916 0.0 
4.44897 3.05285 0.0 
3.90892 2.95471 0.0 
4.88157 2.97457 0.0 
4.62273 3.33728 0.0 
4.44488 3.00976 0.0 
4.44561 2.97028 0.0 
3.70545 3.06026 0.0 
4.4555 2.96791 0.0 
4.47369 3.11118 0.0 
4.30759 2.96106 0.0 
6.12218 2.76842 0.0 
3.69717 3.0647 0.0 
3.70797 3.06213 0.0 
3.84775 2.97071 0.0 
4.26023 3.03322 0.0 
4.61917 3.3431 0.0 
4.70723 2.9477 0.0 
4.94936 2.99377 0.0 
4.82602 2.96754 0.0 
4.70406 2.92664 0.0 
[...]
<PointData>
  <DataArray type = "Float64" Name="Vitesse" NumberOfComponents="3" format="ascii">
0.462538 0.117253 0.0 
0.152381 0.0127812 0.0 
0.114589 -0.0271584 0.0 
0.125387 -0.0127633 0.0 
0.138768 0.00482345 0.0 
0.250074 -0.0296241 0.0 
0.348827 0.0819711 0.0 
0.16433 -0.00465914 0.0 
0.251211 0.0450367 0.0 
0.20211 -0.0177925 0.0 
0.292891 0.00541162 0.0 
0.298325 0.0620598 0.0 
0.0918559 -0.0263222 0.0 
0.155361 0.00500204 0.0 
0.148041 0.0114718 0.0 
0.19543 0.0256475 0.0 
0.22681 0.0410126 0.0 
0.305743 0.0450929 0.0 
0.217962 0.0256337 0.0 
0.232949 0.0118058 0.0 
-0.0431325 -0.139824 0.0 
-0.021615 -0.14837 0.0 
1.02209 -0.0209969 0.0 
0.0262347 -0.153652 0.0 
0.064486 -0.112006 0.0 
0.150685 0.0885966 0.0 
0.0545053 -0.103918 0.0 
-0.0787241 -0.0928069 0.0 
0.164226 -0.165837 0.0 
-0.000122605 -0.154345 0.0 
0.147844 -0.145942 0.0 
1.12107 0.232363 0.0 
0.947813 0.000968319 0.0 
-0.172752 0.153563 0.0 
-0.0102202 0.166644 0.0 
0.810384 -0.000422758 0.0 
0.0913594 -0.121573 0.0 
0.0154189 -0.0958596 0.0 
-0.025786 0.0389705 0.0 
0.0264445 -0.100678 0.0 
0.1822 -0.165011 0.0 
0.873 0.0750399 0.0 
0.177488 -0.0018099 0.0 
-0.173239 0.0894798 0.0 
0.5798 0.0742746 0.0 
0.940917 -0.0703321 0.0 
0.2244 -0.179896 0.0 
-0.0566002 -0.103049 0.0 
-0.0374245 -0.0849188 0.0 
1.03544 0 0.0 
0.136149 0.160495 0.0 
0.635747 0.168131 0.0 
0.688639 0.327655 0.0 
0.264177 0.00684025 0.0 
0.0491164 -0.151458 0.0 
-0.0427589 0.186258 0.0 
0.0337909 -0.0903653 0.0 
-0.178546 0.122712 0.0 
-0.0575631 -0.124648 0.0 
0.601861 0.0505766 0.0 
0.491776 0.61538 0.0 
0.0276424 -0.0809584 0.0 
-0.107418 0.0488679 0.0 
0.0682681 0.0111925 0.0 
-0.0237519 -0.132991 0.0 
-0.0143711 0.137558 0.0 
0.00154244 0.11077 0.0 
-0.00885804 0.0400569 0.0 
-0.116581 -0.162252 0.0 
0.841148 -0.0802286 0.0 
0.259587 -0.0323986 0.0 
1.06023 0 0.0 
-0.027282 -0.127929 0.0 
0.0359367 0.0503722 0.0 
-0.0625668 0.214008 0.0 
1.41763 0.183176 0.0 
0.827668 1.04034 0.0 
0.073407 -0.114545 0.0 
0.89964 0.842061 0.0 
1.04702 0.19651 0.0 
0.0525509 -0.0464487 0.0 
0.827338 0.137712 0.0 
-0.0276961 -0.0163197 0.0 
1.24656 0.652059 0.0 
0.134734 -0.353023 0.0 
-0.0379041 -0.124239 0.0 
0.277483 0.037386 0.0 
0.909259 0.153485 0.0 
-0.0661156 -0.094063 0.0 
0.874172 0.759781 0.0 
0.0537017 0.022122 0.0 
0.751132 0.163574 0.0 
0.499765 0.50487 0.0 
1.02014 0.0498994 0.0 
1.04949 -0.159663 0.0 
-0.0637084 -0.121158 0.0 
-0.0507537 -0.135258 0.0 
0.705427 -0.0711253 0.0 
1.0879 0 0.0 
-0.11779 0.0970854 0.0 
0.896237 -0.0256231 0.0 
0.935492 0.0517024 0.0 
0.740706 1.17587 0.0 
0.225964 -0.199852 0.0 
-0.0643676 -0.133239 0.0 
0.505753 0.331953 0.0 
1.77469 0.171778 0.0 
0.300258 -0.201499 0.0 
1.12489 0.0899835 0.0 
0.67851 0.223516 0.0 
-0.0593049 -0.13342 0.0 
-0.017384 0.238504 0.0 
-0.0269096 0.158356 0.0 
-0.0256678 -0.0913421 0.0 
1.01178 0.0107679 0.0 
-0.054425 -0.147208 0.0 
0.779502 0.0765633 0.0 
0.298617 -0.254049 0.0 
0.0243778 -0.149599 0.0 
-0.0113704 -0.004241 0.0 
0.291153 -0.215384 0.0 
-0.138631 0.207897 0.0 
1.62316 0.0969431 0.0 
0.534375 0.428925 0.0 
0.0343078 -0.0983963 0.0 
0.973826 0.479742 0.0 
-0.00520213 -0.112065 0.0 
0.248599 -0.190892 0.0 
0.0589065 -0.132305 0.0 
1.50447 0.382561 0.0 
-0.123637 -0.0964579 0.0 
1.67897 -0.19432 0.0 
0.120887 -0.158363 0.0 
0.181664 -0.175471 0.0 
0.155644 -0.173903 0.0 
1.49129 0.29533 0.0 
0.0528082 -0.41192 0.0 
0.0482345 -0.14885 0.0 
0.20882 -0.171713 0.0 
0.268498 -0.19054 0.0 
-0.0416208 -0.0638266 0.0 
0.152228 -0.172698 0.0 
0.230172 -0.210199 0.0 
0.390332 0.0429313 0.0 
0.113351 -0.15885 0.0 
1.49594 -0.235914 0.0 
0.621288 -0.212623 0.0 
0.799216 -0.376246 0.0 
-0.00802951 -0.00253976 0.0 
-0.0264389 -0.0928239 0.0 
0.121071 0.055554 0.0 
1.69923 -0.0164095 0.0 
0.697697 -0.459774 0.0 
0.780731 -0.441048 0.0 
0.884031 -0.195488 0.0 
1.1413 -0.209587 0.0 
1.81804 0.108294 0.0 
0.453763 0.579271 0.0 
1.18599 0.0506498 0.0 
1.52998 -0.182312 0.0 
0.885347 1.14601 0.0 
1.55482 0.333401 0.0 
1.06673 -0.0622855 0.0 
-0.0677076 -0.13589 0.0 
-0.0783343 -0.0775686 0.0 
1.21361 0.207453 0.0 
0.934244 0.927797 0.0 
1.57755 0.123742 0.0 
1.33352 -0.241026 0.0 
-0.154746 -0.333899 0.0 
-0.151534 -0.108137 0.0 
0.59131 0.673646 0.0 
0.919266 -0.259537 0.0 
0.676644 -0.31766 0.0 
1.62058 0.222341 0.0 
-0.0941931 -0.0844998 0.0 
0.979062 0.147413 0.0 
0.83042 -0.0412529 0.0 
0.93847 -0.154505 0.0 
0.0467888 -0.153162 0.0 
1.58555 0.322626 0.0 
1.41797 0.751239 0.0 
0.276384 -0.217886 0.0 
1.18694 -0.127624 0.0 
0.988084 0.0846417 0.0 
0.473843 -0.139427 0.0 
0.225542 -0.190237 0.0 
0.352638 -0.0039339 0.0 
0.983508 -0.0196334 0.0 
1.3045 0.138035 0.0 
1.10239 -0.0391536 0.0 
-0.160365 0.126916 0.0 
0.745359 -0.218318 0.0 
1.48291 0.567519 0.0 
1.40583 0.344242 0.0 
0.611269 0.259431 0.0 
1.32216 0.0114076 0.0 
1.34962 0.330789 0.0 
1.44526 0.407772 0.0 
0.0716085 0.179322 0.0 
1.31813 0.531834 0.0 
1.35871 -0.224865 0.0 
0.34702 -0.26991 0.0 
1.41319 0.2952 0.0 
0.033418 0.00892796 0.0 
1.02924 -0.209453 0.0 
0.640738 -0.338302 0.0 
0.654807 0.148064 0.0 
0.847666 0.18699 0.0 
1.01779 0 0.0 
0.793969 0.027234 0.0 
0.36695 -0.286608 0.0 
1.3787 0.829824 0.0 
1.21758 0.565013 0.0 
0.729586 -0.141277 0.0 
0.564502 -0.372377 0.0 
1.40514 0.261121 0.0 
1.53519 0.357641 0.0 
1.60149 -0.217001 0.0 
1.41103 0.301098 0.0 
1.8113 -0.034937 0.0 
0.568042 0.53757 0.0 
1.14238 0.776451 0.0 
1.71988 -0.0619485 0.0 
1.54188 0.471303 0.0 
0.950276 -0.473171 0.0 
1.58998 -0.173118 0.0 
1.12194 -0.213302 0.0 
1.01516 -0.12304 0.0 
-0.00191067 -0.0327461 0.0 
1.48825 0.692796 0.0 
0.0995052 -0.134041 0.0 
0.0392653 0.00932928 0.0 
0.0255958 -0.144541 0.0 
-0.117095 -0.150016 0.0 
1.7058 0.12794 0.0 
1.18645 0.625898 0.0 
0.68793 0.730562 0.0 
1.72644 0.27223 0.0 
1.76988 0.223553 0.0 
0.613125 -0.0990841 0.0 
1.52573 0.314245 0.0 
0.107597 -0.143822 0.0 
1.05419 0.280549 0.0 
1.56747 -0.217297 0.0 
1.72552 -0.133348 0.0 
0.14514 -0.152843 0.0 
-0.0453659 -0.152546 0.0 
1.27636 0.121666 0.0 
1.75484 -0.166357 0.0 
0.920299 0.389755 0.0 
1.52169 0.1491 0.0 
1.24488 -0.315133 0.0 
1.26537 -0.000476066 0.0 
1.16338 0 0.0 
1.17137 0.431628 0.0 
1.5076 -0.216886 0.0 
1.0053 -0.0730218 0.0 
1.49071 -0.179352 0.0 
1.43394 0.487157 0.0 
-0.0134726 0.127672 0.0 
1.43583 0.373695 0.0 
1.59589 -0.253329 0.0 
0.0333439 -0.0950851 0.0 
1.67491 -0.239499 0.0 
1.16229 -0.414478 0.0 
0.535712 -0.215309 0.0 
1.36542 -0.199862 0.0 
-0.0334037 0.035763 0.0 
1.16979 0.187651 0.0 
0.366427 0.0781892 0.0 
-0.137736 -0.187443 0.0 
1.14973 0.661166 0.0 
0.0551009 -0.149114 0.0 
1.04902 -0.341825 0.0 
1.03518 0.0241622 0.0 
-0.292796 -0.315493 0.0 
0.387707 -0.0716318 0.0 
1.78073 0.0400148 0.0 
0.738577 0.437129 0.0 
0.0597194 -0.150356 0.0 
1.79492 -0.102051 0.0 
1.81664 0.0418949 0.0 
0.0882377 -0.152906 0.0 
1.51368 -0.251453 0.0 
0.148542 -0.142873 0.0 
-0.0446229 -0.135959 0.0 
1.45089 -0.165202 0.0 
1.40616 -0.201719 0.0 
1.07802 0.511267 0.0 
1.56277 -0.236902 0.0 
1.26244 0.45278 0.0 
0.964554 0.610633 0.0 
-0.0515986 -0.0833471 0.0 
1.53994 -0.249432 0.0 
0.894926 -0.41635 0.0 
-0.163283 -0.158797 0.0 
1.3108 0.420938 0.0 
0.291006 -0.202028 0.0 
1.55127 -0.222599 0.0 
1.48506 0.282462 0.0 
-0.216031 -0.227296 0.0 
1.26271 0.365719 0.0 
1.25161 0 0.0 
0.0960984 -0.120199 0.0 
0.339423 -0.194859 0.0 
0.117424 0.032047 0.0 
0.772135 0.937472 0.0 
0.028907 0.135241 0.0 
0.697284 0.561223 0.0 
0.0228383 0.228119 0.0 
-0.0795613 -0.123772 0.0 
1.55219 0.351615 0.0 
0.969162 -0.408749 0.0 
1.01968 0.739141 0.0 
1.13578 0.863242 0.0 
1.02863 0 0.0 
0.450967 0.0899948 0.0 
0.500621 0.747851 0.0 
-0.00135419 0.102908 0.0 
0.0143619 -0.00941894 0.0 
-0.208465 -0.184369 0.0 
0.968665 0.303115 0.0 
0.647262 0.152 0.0 
0.0526062 -0.101403 0.0 
0.883867 0.295231 0.0 
0.837443 0.226092 0.0 
0.0289138 0.19947 0.0 
1.26871 0.252368 0.0 
0.0611196 -0.125038 0.0 
0.0563161 -0.101678 0.0 
1.1262 -0.500873 0.0 
0.882197 -0.157506 0.0 
0.976791 -0.141321 0.0 
0.101097 -0.160269 0.0 
0.533147 0.136467 0.0 
0.733812 0.915475 0.0 
0.851727 0.494365 0.0 
-0.0125905 -0.0646082 0.0 
1.55795 0.216166 0.0 
-0.115979 0.0714463 0.0 
0.462103 0.514336 0.0 
0.011236 0.00660528 0.0 
0.0551166 0.153103 0.0 
1.54548 0.273132 0.0 
0.0498028 -0.116175 0.0 
1.64831 0.287971 0.0 
0.607966 -0.304642 0.0 
0.808732 0.366658 0.0 
1.70516 0.216985 0.0 
1.34758 0.327943 0.0 
0.945308 -0.261817 0.0 
0.631364 0.435912 0.0 
0.714128 0.0202751 0.0 
0.322234 -0.199727 0.0 
1.7054 -0.205964 0.0 
-0.115229 0.216048 0.0 
0.0609806 -0.022858 0.0 
1.74567 -0.103711 0.0 
1.10501 1.05416 0.0 
-0.0936575 0.0380516 0.0 
0.423507 -0.220649 0.0 
1.26922 0.275022 0.0 
0.985253 -0.0110549 0.0 
1.29183 0.781486 0.0 
0.0999205 -0.152634 0.0 
0.832275 -0.485596 0.0 
1.16481 0.307739 0.0 
1.26917 0.489165 0.0 
0.718496 -0.387478 0.0 
0.496894 -0.247044 0.0 
0.962853 1.07172 0.0 
0.506109 -0.175105 0.0 
1.04659 0.38567 0.0 
-0.0227949 -0.112692 0.0 
1.54315 0.301226 0.0 
1.30416 0.425557 0.0 
-0.0497084 -0.0779273 0.0 
1.12663 0.158902 0.0 
-0.00797892 0.128153 0.0 
1.17253 0.647955 0.0 
1.28127 0.538335 0.0 
0.98435 0.0315507 0.0 
1.36737 0.301545 0.0 
1.27711 0.520352 0.0 
1.33013 0.429219 0.0 
0.0636342 -0.388763 0.0 
0.0804105 -0.122896 0.0 
0.0888646 -0.119416 0.0 
0.779571 0.0972384 0.0 
1.31238 0.346892 0.0 
1.31429 0.420438 0.0 
0.254022 -0.174626 0.0 
0.356541 -0.183462 0.0 
0.177116 -0.167377 0.0 
0.219145 -0.168618 0.0 
0.124722 -0.153495 0.0 
1.57106 -0.246413 0.0 
0.170682 -0.146705 0.0 
0.179092 -0.156173 0.0 
0.225168 -0.215948 0.0 
0.480837 -0.34729 0.0 
1.11293 0.642406 0.0 
1.21737 0.94377 0.0 
1.20043 0.538857 0.0 
0.192865 -0.162656 0.0 
0.289989 -0.20096 0.0 
0.211123 -0.21226 0.0 
0.223458 -0.163968 0.0 
0.0529102 -0.1113 0.0 
1.1043 0.197758 0.0 
1.05706 1.00639 0.0 
1.37248 -0.129508 0.0 
0.857093 0.217006 0.0 
0.265492 -0.188331 0.0 
0.614587 -0.00210306 0.0 
0.934867 -0.0412086 0.0 
0.133919 -0.151186 0.0 
0.102467 -0.126842 0.0 
0.306796 -0.170072 0.0 
0.6038 -0.150099 0.0 
0.158698 -0.155767 0.0 
1.34553 0.285096 0.0 
0.166811 -0.151494 0.0 
0.00565732 -0.0922894 0.0 
0.0598436 -0.0190951 0.0 
1.49783 0.604932 0.0 
0.168081 -0.147886 0.0 
0.246468 -0.174398 0.0 
0.578772 0.087489 0.0 
-0.0685589 0.233375 0.0 
-0.02706 -0.066895 0.0 
-0.0265464 0.22137 0.0 
-0.00700538 -0.0885217 0.0 
-0.00471194 -0.00145721 0.0 
0.0427417 0.0140994 0.0 
0.00289759 -0.0572168 0.0 
-0.0400694 -0.106609 0.0 
1.5149 0.292805 0.0 
0.0253027 0.0226451 0.0 
0.0591269 0.223779 0.0 
0.263374 -0.255 0.0 
-0.0242109 -0.082838 0.0 
1.20537 -0.0979238 0.0 
-0.048558 0.0421105 0.0 
-0.134617 0.0770239 0.0 
0.0572244 0.00680971 0.0 
-0.0268897 -0.0790977 0.0 
0.0331252 0.150728 0.0 
1.29151 -0.122679 0.0 
-0.0158307 0.142645 0.0 
0.0146453 0.0895111 0.0 
0.758319 -0.287681 0.0 
0.00150429 -0.356376 0.0 
-0.0118615 -0.00505933 0.0 
-0.0176911 0.159847 0.0 
0.0322127 0.181561 0.0 
-0.0108408 -0.0863445 0.0 
0.0377296 0.164762 0.0 
0.0542145 0.0109849 0.0 
0.223664 0.166441 0.0 
1.58254 0.427218 0.0 
-0.0181001 -0.0816838 0.0 
-0.0254633 -0.0812935 0.0 
0.732419 -0.3199 0.0 
-0.103471 0.112086 0.0 
-0.0103173 -0.00411278 0.0 
0.177267 -0.351468 0.0 
-0.118215 -0.28257 0.0 
0.0557397 -0.402529 0.0 
0.25657 -0.342186 0.0 
1.37714 0.630681 0.0 
-0.101586 0.0754282 0.0 
0.0511364 0.0130472 0.0 
0.584556 0.174462 0.0 
0.152928 0.0362996 0.0 
0.0446431 0.0310475 0.0 
-0.0126113 -0.0602099 0.0 
0.425176 -0.276349 0.0 
0.0059929 -0.0525922 0.0 
0.0444405 0.0259797 0.0 
0.0573371 0.00569609 0.0 
1.56972 0.342791 0.0 
-0.167157 -0.290565 0.0 
-0.105388 0.240938 0.0 
1.52785 0.314933 0.0 
1.55183 0.301956 0.0 
0.0673998 0.223442 0.0 
0.351584 -0.262347 0.0 
0.0492378 -0.16518 0.0 
0.0319448 -0.0969658 0.0 
0.0369472 0.0556071 0.0 
-0.0477451 0.18754 0.0 
0.0253079 0.111104 0.0 
-0.17302 0.128522 0.0 
-0.101854 -0.353669 0.0 
0.523185 -0.309107 0.0 
0.424786 -0.286602 0.0 
-0.00477725 -0.381597 0.0 
-0.0369039 -0.0775528 0.0 
1.11739 0.0287488 0.0 
-0.175744 -0.191012 0.0 
-0.00617767 -0.013243 0.0 
0.000726172 -0.148333 0.0 
-0.0112628 0.108674 0.0 
-0.0124171 0.243773 0.0 
-0.026239 -0.0668164 0.0 
0.585988 -0.357584 0.0 
1.56287 0.388483 0.0 
-0.0169165 -0.0953831 0.0 
-0.0200198 -0.0731333 0.0 
1.54893 0.295079 0.0 
0.0275058 -0.0442796 0.0 
-0.0783038 -0.150619 0.0 
0.0199733 0.166116 0.0 
1.20127 -0.17988 0.0 
-0.0109422 0.0933222 0.0 
-0.0549792 -0.101057 0.0 
0.0441242 0.00537852 0.0 
0.366374 -0.215448 0.0 
-0.00213137 -0.0876921 0.0 
0.0368948 0.0482862 0.0 
1.68059 0.316841 0.0 
-0.0120069 0.137446 0.0 
-0.101178 -0.1531 0.0 
-0.0975682 0.234807 0.0 
1.77752 0.192691 0.0 
-0.0885828 -0.14788 0.0 
0.969925 -0.225978 0.0 
-0.065325 -0.14136 0.0 
1.29757 -0.160382 0.0 
-0.0686642 0.059413 0.0 
0.421648 -0.231845 0.0 
1.7373 0.0666149 0.0 
0.0148665 0.0586344 0.0 
-0.00392197 -0.0889537 0.0 
1.31868 0.246914 0.0 
0.544604 -0.233173 0.0 
0.635298 0.130084 0.0 
0.49464 -0.212443 0.0 
0.0193273 0.0752922 0.0 
0.0360163 0.0652368 0.0 
0.867311 -0.168101 0.0 
0.334213 -0.202675 0.0 
0.00837729 0.0788165 0.0 
-0.00121867 -0.0866608 0.0 
0.497202 -0.258656 0.0 
0.395111 -0.242756 0.0 
1.08318 -0.0853389 0.0 
0.00371875 -0.0853745 0.0 
-0.00180769 -0.0895856 0.0 
0.0503336 0.033038 0.0 
0.0063846 -0.00648772 0.0 
1.55267 0.302103 0.0 
0.715487 -0.257036 0.0 
-0.0571504 0.192952 0.0 
0.0832667 -0.112297 0.0 
1.18765 -0.242068 0.0 
0.88854 -0.0119379 0.0 
0.423644 -0.235476 0.0 
1.28186 0.308647 0.0 
-0.179992 0.0951544 0.0 
0.00891035 -0.0894827 0.0 
1.24996 -0.231803 0.0 
1.53308 0.483576 0.0 
1.15058 -0.234306 0.0 
0.0938248 -0.126445 0.0 
1.5291 0.346772 0.0 
0.396675 -0.226651 0.0 
1.58264 0.231679 0.0 
0.0500756 0.0247711 0.0 
-0.127237 -0.270096 0.0 
0.0148058 0.117763 0.0 
-0.00596884 -0.0733503 0.0 
1.64337 0.335091 0.0 
1.55798 0.54362 0.0 
1.06604 -0.138313 0.0 
-0.0847718 0.237927 0.0 
0.0348954 -0.100291 0.0 
0.0491049 0.0300809 0.0 
-0.0330467 0.166233 0.0 
0.820004 -0.209453 0.0 
1.40615 -0.1427 0.0 
1.23254 -0.0862033 0.0 
1.49206 -0.248084 0.0 
0.00606459 0.113628 0.0 
1.36296 0.10583 0.0 
0.0567725 -0.354218 0.0 
1.32241 0.333777 0.0 
0.523375 -0.273057 0.0 
0.0207104 -0.096984 0.0 
1.49705 -0.0256005 0.0 
0.453849 -0.257714 0.0 
0.192945 -0.153914 0.0 
1.05525 0.115817 0.0 
0.178317 0.195551 0.0 
-0.381337 -0.269573 0.0 
0.024883 0.0700284 0.0 
1.57008 0.288281 0.0 
-0.0120949 0.0567983 0.0 
0.541009 0.230587 0.0 
-0.145962 0.111849 0.0 
-0.0984185 -0.151899 0.0 
0.5724 0.845324 0.0 
-0.00991665 -0.00355255 0.0 
0.216698 -0.116851 0.0 
-0.00809762 -0.00267711 0.0 
0.169947 -0.153931 0.0 
-0.0133355 -0.0787391 0.0 
0.977442 -0.169127 0.0 
0.00195424 0.116013 0.0 
0.495499 -0.0284808 0.0 
0.126356 -0.400792 0.0 
0.00815743 0.000126243 0.0 
-0.0978878 -0.123063 0.0 
0.0668222 -0.298238 0.0 
0.0174445 0.0928987 0.0 
0.0746591 0.112414 0.0 
0.701249 -0.0922016 0.0 
-0.000290235 -0.00950616 0.0 
0.164845 -0.0913045 0.0 
-0.0338342 -0.0951301 0.0 
1.38652 0.486851 0.0 
-0.0116009 -0.00464848 0.0 
-0.419083 -0.280688 0.0 
0.263139 -0.0431183 0.0 
0.0813984 0.085446 0.0 
1.07439 0.717047 0.0 
0.167674 0.164811 0.0 
-0.0816718 -0.155092 0.0 
-0.0105738 0.0146916 0.0 
-0.0355304 -0.0791061 0.0 
0.346149 -0.228464 0.0 
-0.168035 -0.220804 0.0 
-0.114254 -0.122147 0.0 
0.0199216 0.236094 0.0 
0.667598 -0.32581 0.0 
0.495656 -0.207426 0.0 
0.1753 0.198612 0.0 
0.0362538 0.06686 0.0 
-0.0559185 0.0542584 0.0 
0.462682 -0.36637 0.0 
-0.0210887 -0.0114412 0.0 
0.23735 -0.159022 0.0 
-0.013839 -0.0188587 0.0 
-0.142757 -0.130773 0.0 
0.119113 0.210508 0.0 
-0.0356481 -0.0730046 0.0 
-0.0141129 -0.00604407 0.0 
0.121822 0.112271 0.0 
0.677104 0.0866552 0.0 
-0.0381651 -0.0747349 0.0 
0.0350772 -0.10743 0.0 
1.04193 0.775112 0.0 
0.96842 0.052095 0.0 
0.207578 -0.414957 0.0 
0.264557 -0.150519 0.0 
-0.074058 -0.106474 0.0 
-0.132974 -0.214333 0.0 
-0.0226499 -0.0832678 0.0 
0.0217238 -0.0969261 0.0 
0.303323 -0.0883481 0.0 
0.964167 0.22993 0.0 
-0.0427254 -0.0913208 0.0 
0.365579 0.0223977 0.0 
1.09769 -0.0577925 0.0 
-0.0287101 -0.0794548 0.0 
-0.00707483 -0.0883844 0.0 
0.00791959 0.0646646 0.0 
-0.269739 -0.255619 0.0 
-0.0221327 -0.0761348 0.0 
-0.0888927 -0.103418 0.0 
-0.0633345 -0.091352 0.0 
-0.0746763 -0.127256 0.0 
0.197362 -0.39425 0.0 
-0.00317444 -0.0767064 0.0 
0.0345652 0.0647069 0.0 
0.113726 -0.376835 0.0 
-0.0323649 -0.0693505 0.0 
-0.0212824 -0.0784883 0.0 
0.736214 -0.186012 0.0 
0.160252 -0.0256005 0.0 
0.21313 0.0656657 0.0 
-0.0549381 -0.140602 0.0 
0.0257878 0.0724532 0.0 
0.0788776 -0.11049 0.0 
0.188344 0.1848 0.0 
0.779174 0.266837 0.0 
-0.0375186 -0.0789279 0.0 
0.591635 0.100095 0.0 
-0.0247344 -0.135867 0.0 
-0.000406871 -0.14312 0.0 
-0.117528 -0.113699 0.0 
0.699025 0.017813 0.0 
0.0276698 0.0466167 0.0 
0.00287644 -0.0124166 0.0 
0.00427499 -0.076941 0.0 
-4.67651e-05 -0.081042 0.0 
-0.16417 -0.116857 0.0 
-0.0402339 0.030876 0.0 
-0.0133296 -0.1217 0.0 
0.0552625 0.169784 0.0 
-0.356171 -0.255565 0.0 
0.0459837 0.0403819 0.0 
-0.0283372 0.0233247 0.0 
-0.00310362 -0.018468 0.0 
-0.0450244 -0.0830202 0.0 
0.00853296 0.102529 0.0 
0.0053823 -0.00384342 0.0 
0.0586447 -0.0249834 0.0 
-0.0412459 0.0536233 0.0 
-0.0747244 0.218865 0.0 
-0.0761998 0.0947367 0.0 
0.0519438 -0.106722 0.0 
-0.114749 0.160193 0.0 
-0.000509008 0.120708 0.0 
0.0563387 -0.0584045 0.0 
-0.054755 -0.080919 0.0 
0.0204027 -0.0862402 0.0 
0.0542021 0.0208039 0.0 
0.0160949 -0.00245616 0.0 
-0.00781349 -0.00292514 0.0 
-0.115824 0.233534 0.0 
0.127689 -0.388978 0.0 
-0.00269841 0.0560978 0.0 
0.0034482 -0.00622009 0.0 
0.0245649 0.076397 0.0 
0.0427001 -0.144788 0.0 
-0.0295513 -0.0643112 0.0 
0.0475081 0.0411177 0.0 
-0.0596399 -0.114342 0.0 
1.25102 0 0.0 
0.425797 0.0661456 0.0 
0.0130941 0.0011862 0.0 
0.0154928 -0.0117508 0.0 
0.134427 -0.136069 0.0 
-0.2508 -0.215006 0.0 
0.932761 0.103254 0.0 
0.141123 0.190162 0.0 
0.0452942 0.035324 0.0 
-0.0816412 -0.130775 0.0 
0.0498869 0.017758 0.0 
0.0235227 0.0867566 0.0 
-0.0312459 0.0528339 0.0 
0.0299269 0.015264 0.0 
-0.034282 0.128589 0.0 
0.0457785 0.0459329 0.0 
0.202434 -0.386866 0.0 
0.901923 1.0788 0.0 
-0.140138 0.132038 0.0 
-0.0428642 -0.105967 0.0 
-0.0227202 -0.0995433 0.0 
0.146871 -0.118515 0.0 
0.187597 -0.410839 0.0 
0.0163946 -0.0996805 0.0 
0.0175977 0.131776 0.0 
-0.0791638 0.158695 0.0 
0.000960417 0.120256 0.0 
0.00924096 -0.0085663 0.0 
0.027709 -0.0648253 0.0 
0.961377 0.171839 0.0 
-0.0243109 -0.0753482 0.0 
0.00636174 0.138928 0.0 
-0.121146 0.13241 0.0 
0.0290766 0.0177139 0.0 
-0.0554988 -0.0772527 0.0 
0.0921777 -0.118274 0.0 
-0.308834 -0.240153 0.0 
-0.0129652 -0.162307 0.0 
0.126173 -0.415805 0.0 
0.0342598 -0.117528 0.0 
0.546755 -0.102916 0.0 
0.350907 -0.138236 0.0 
0.00643354 0.0172148 0.0 
-0.40147 -0.270728 0.0 
0.246051 0.176049 0.0 
0.0340245 0.0572353 0.0 
-0.0418967 0.190923 0.0 
0.571794 0.0688972 0.0 
0.00837333 -0.00630876 0.0 
0.116573 0.0854163 0.0 
-0.00488729 0.0169854 0.0 
0.0298409 0.0576031 0.0 
0.19583 -0.144627 0.0 
0.0990926 -0.122276 0.0 
0.892311 -0.280832 0.0 
-0.275363 -0.203692 0.0 
0.022995 0.066408 0.0 
1.27958 0.277182 0.0 
0.0403757 -0.0936934 0.0 
0.00416842 -0.00325854 0.0 
0.736242 -0.331421 0.0 
0.0606024 0.214232 0.0 
0.375253 -0.0461242 0.0 
0.33976 -0.159758 0.0 
-0.0466953 0.104411 0.0 
1.30348 0.0518169 0.0 
1.21818 0 0.0 
0.334204 0.132602 0.0 
0.0558621 -0.10811 0.0 
0.723177 -0.292093 0.0 
0.0291936 -0.195948 0.0 
-0.013946 -0.0439062 0.0 
0.800654 0.0236563 0.0 
-0.109877 -0.140968 0.0 
1.23933 0.0576981 0.0 
0.0659388 -0.111169 0.0 
-0.028491 -0.150334 0.0 
0.448163 -0.100714 0.0 
0.329282 -0.227011 0.0 
1.19396 0.117226 0.0 
1.26265 0.0232181 0.0 
0.159892 0.195821 0.0 
0.111131 -0.130901 0.0 
-0.0530401 0.12199 0.0 
0.0199295 0.094086 0.0 
0.0607127 -0.111916 0.0 
0.419659 0.0558035 0.0 
0.708538 0.0625666 0.0 
0.0770697 0.15511 0.0 
-0.00518853 0.0332657 0.0 
0.330816 -0.217004 0.0 
0.00276625 0.0977108 0.0 
0.0760541 -0.32533 0.0 
0.0816733 -0.120093 0.0 
0.300367 0.162573 0.0 