<VTKFile type="UnstructuredGrid" version="0.1" byte_order="LittleEndian">
  <UnstructuredGrid>
    <Piece NumberOfPoints="18973" NumberOfCells="37858">
      <Points>
        <DataArray type = "Float64" NumberOfComponents="3" format="ascii">
4.92424 3.63271 0.0 
4.92876 3.65173 0.0 
4.94493 3.66592 0.0 
4.92541 3.64283 0.0 
4.93136 3.64426 0.0 
4.94367 3.65688 0.0 
4.84109 3.53082 0.0 
4.93409 3.65152 0.0 
4.92826 3.63585 0.0 
5.43125 3.62858 0.0 
4.93629 3.66444 0.0 
4.93877 3.6586 0.0 
4.92938 3.64735 0.0 
4.92092 3.63041 0.0 
4.0901 3.93473 0.0 
4.93326 3.64052 0.0 
4.07933 3.94293 0.0 
4.93004 3.63093 0.0 
4.93894 3.6377 0.0 
4.90363 3.61501 0.0 
5.4724 3.87723 0.0 
4.37545 3.53618 0.0 
4.9403 3.67087 0.0 
4.8694 3.6566 0.0 
4.94033 3.66566 0.0 
4.92298 3.63811 0.0 
4.95078 3.68225 0.0 
4.12157 3.69101 0.0 
4.94469 3.67961 0.0 
4.97245 3.74749 0.0 
4.07032 3.94556 0.0 
4.95732 3.72169 0.0 
4.92343 3.62672 0.0 
4.9497 3.68873 0.0 
4.31589 3.86321 0.0 
4.91153 3.63147 0.0 
4.92968 3.65909 0.0 
5.42112 4.01841 0.0 
4.91799 3.62154 0.0 
4.89712 3.59312 0.0 
4.94554 3.67379 0.0 
4.18248 3.75163 0.0 
4.25897 3.73672 0.0 
4.96604 3.73098 0.0 
4.91693 3.64126 0.0 
4.9368 3.64979 0.0 
4.70124 3.47972 0.0 
4.06527 3.95075 0.0 
5.45168 3.53488 0.0 
5.01698 3.74497 0.0 
4.89506 3.58393 0.0 
4.91552 3.63731 0.0 
5.10137 3.75797 0.0 
5.02627 3.55328 0.0 
4.74655 3.83898 0.0 
4.8965 3.58248 0.0 
5.36523 3.53214 0.0 
5.30162 3.51351 0.0 
4.94103 3.67932 0.0 
4.5962 3.51361 0.0 
5.06976 3.75287 0.0 
5.17662 3.55407 0.0 
4.10246 3.92418 0.0 
4.82311 3.92065 0.0 
4.96275 3.73583 0.0 
5.41536 3.56746 0.0 
5.64788 3.59291 0.0 
4.89392 3.5816 0.0 
5.03712 3.64903 0.0 
5.44286 3.95011 0.0 
4.08553 3.7875 0.0 
4.90649 3.60044 0.0 
4.3762 3.57497 0.0 
4.92998 3.66944 0.0 
5.5874 3.80467 0.0 
4.69818 3.53998 0.0 
5.06357 3.6273 0.0 
4.9162 3.61101 0.0 
5.41354 4.48773 0.0 
4.11561 3.85528 0.0 
5.56439 4.16195 0.0 
5.30304 3.94781 0.0 
5.52475 4.24029 0.0 
5.49678 4.01417 0.0 
4.89369 3.58669 0.0 
5.05561 3.25923 0.0 
4.34911 3.50106 0.0 
4.27986 3.73408 0.0 
5.48373 3.65543 0.0 
4.90996 3.60559 0.0 
4.91329 3.62657 0.0 
5.45389 3.69319 0.0 
5.50039 4.42041 0.0 
5.54719 4.3059 0.0 
5.49677 4.35593 0.0 
4.92489 3.65478 0.0 
4.44871 3.87727 0.0 
5.64221 4.12462 0.0 
4.11988 3.68591 0.0 
5.65523 4.18775 0.0 
4.96827 3.85328 0.0 
5.13251 3.66884 0.0 
5.45315 4.20698 0.0 
4.92515 3.64791 0.0 
4.20141 3.73851 0.0 
4.0882 3.92055 0.0 
5.06752 3.47792 0.0 
5.08127 4.02622 0.0 
4.91367 3.6205 0.0 
5.6001 4.24522 0.0 
4.91418 3.8964 0.0 
5.48955 3.75821 0.0 
4.93041 3.67711 0.0 
5.58679 3.51221 0.0 
4.84936 3.59215 0.0 
5.52198 3.27633 0.0 
5.62578 3.47103 0.0 
5.08507 4.3681 0.0 
4.89142 3.58358 0.0 
4.97389 3.80328 0.0 
4.91853 3.6318 0.0 
5.62143 3.55802 0.0 
5.42406 4.3117 0.0 
4.63893 4.3127 0.0 
5.64603 3.53492 0.0 
4.91999 3.64051 0.0 
4.92039 3.68553 0.0 
4.9148 3.62617 0.0 
5.14751 3.7627 0.0 
4.61034 4.28273 0.0 
4.93436 3.70667 0.0 
5.31621 3.17409 0.0 
5.53626 3.48517 0.0 
4.94066 3.3112 0.0 
4.21465 3.72086 0.0 
4.87647 3.60014 0.0 
5.40745 3.81812 0.0 
5.36094 3.17097 0.0 
4.92872 3.66428 0.0 
4.92223 3.64516 0.0 
4.92611 3.68048 0.0 
5.40285 4.23241 0.0 
4.68428 3.55688 0.0 
5.33944 3.26581 0.0 
4.31171 3.69486 0.0 
5.55437 3.76539 0.0 
5.38151 3.4246 0.0 
5.1058 3.6255 0.0 
4.24202 3.67217 0.0 
4.76928 3.57547 0.0 
4.91009 3.62804 0.0 
4.13078 3.84995 0.0 
4.88611 3.55043 0.0 
5.2538 3.4692 0.0 
4.92403 3.64929 0.0 
5.39412 3.19452 0.0 
4.29034 3.66629 0.0 
5.34397 3.68675 0.0 
4.16239 3.79588 0.0 
4.88464 3.57849 0.0 
4.9124 3.68413 0.0 
5.34987 3.21971 0.0 
4.90832 3.62098 0.0 
4.92639 3.65452 0.0 
4.25979 3.52568 0.0 
4.31504 3.66613 0.0 
4.77295 3.58573 0.0 
4.90544 3.62227 0.0 
4.96932 3.89268 0.0 
4.22928 3.55562 0.0 
4.31634 3.50521 0.0 
4.41361 3.65516 0.0 
4.31684 3.62704 0.0 
4.07414 3.94443 0.0 
4.07822 3.92328 0.0 
4.06643 3.80008 0.0 
4.92779 3.6593 0.0 
4.91099 3.60293 0.0 
5.327 3.45982 0.0 
4.68618 3.56632 0.0 
5.18429 3.70196 0.0 
4.19409 3.75442 0.0 
4.92469 3.68445 0.0 
4.93711 3.92686 0.0 
4.16428 3.60928 0.0 
5.61624 3.67418 0.0 
4.91294 3.63442 0.0 
4.21817 3.80414 0.0 
4.89191 3.58608 0.0 
4.36363 3.60372 0.0 
4.93619 3.66822 0.0 
5.12145 3.71548 0.0 
4.61983 3.56223 0.0 
4.47817 3.57107 0.0 
5.2896 3.14397 0.0 
4.06781 3.94153 0.0 
5.47478 4.08503 0.0 
5.37471 3.95582 0.0 
5.27488 3.15363 0.0 
5.12154 4.13697 0.0 
5.21842 3.59334 0.0 
5.29003 4.40577 0.0 
4.77572 3.5079 0.0 
4.90022 3.54041 0.0 
4.93278 3.62448 0.0 
4.20532 3.78919 0.0 
4.91066 3.62373 0.0 
4.87588 3.57946 0.0 
5.19645 3.41563 0.0 
4.26638 3.68559 0.0 
4.92748 3.60049 0.0 
5.38248 3.36016 0.0 
5.30961 3.15274 0.0 
4.92008 3.63534 0.0 
4.91513 3.6157 0.0 
4.2291 3.73829 0.0 
4.4337 3.58547 0.0 
4.94406 3.77516 0.0 
4.90583 3.60851 0.0 
4.76965 3.52894 0.0 
4.30758 3.65139 0.0 
5.58929 3.5733 0.0 
5.04398 3.76518 0.0 
4.80733 3.58788 0.0 
5.50763 3.41848 0.0 
5.43406 3.47265 0.0 
4.1389 3.91487 0.0 
4.57808 3.60162 0.0 
5.29003 3.19994 0.0 
5.32868 3.3171 0.0 
5.1295 3.86044 0.0 
5.12312 3.50993 0.0 
4.28617 3.71076 0.0 
4.91445 3.62993 0.0 
5.46349 3.80523 0.0 
4.46558 3.62602 0.0 
4.79781 3.52662 0.0 
4.91429 3.67641 0.0 
5.38438 3.29304 0.0 
5.21336 3.34983 0.0 
4.45223 3.61771 0.0 
4.48059 3.56315 0.0 
5.22776 4.37569 0.0 
5.55433 4.07814 0.0 
4.20046 3.76377 0.0 
4.15493 3.86362 0.0 
5.54147 3.89729 0.0 
4.87972 3.76667 0.0 
5.30005 3.16868 0.0 
4.92143 3.64699 0.0 
4.38552 3.60786 0.0 
5.59529 3.88683 0.0 
4.48885 3.58186 0.0 
5.42909 3.23163 0.0 
4.88778 3.57347 0.0 
5.26692 3.14977 0.0 
4.19685 3.77131 0.0 
4.87934 3.57526 0.0 
5.27379 3.33426 0.0 
4.55756 3.54944 0.0 
5.00046 3.84595 0.0 
4.70861 3.41976 0.0 
4.93132 3.67403 0.0 
5.50866 3.23663 0.0 
4.67197 3.39915 0.0 
5.28604 3.65716 0.0 
4.29115 3.69803 0.0 
4.90173 3.61122 0.0 
5.06963 3.58317 0.0 
4.07847 3.93636 0.0 
5.34584 4.03509 0.0 
4.79396 3.52846 0.0 
4.38782 3.46972 0.0 
4.38946 3.64817 0.0 
4.09118 3.89317 0.0 
4.29155 3.50502 0.0 
4.3424 3.59443 0.0 
4.6763 3.48455 0.0 
5.33639 3.89544 0.0 
4.92552 3.79253 0.0 
4.92013 3.62713 0.0 
4.76132 3.6095 0.0 
5.2726 3.59934 0.0 
5.22966 3.65018 0.0 
4.66569 3.41587 0.0 
5.27923 3.1808 0.0 
4.08242 3.93841 0.0 
5.17497 4.38519 0.0 
4.88732 3.58707 0.0 
5.57043 3.65067 0.0 
4.10417 3.91193 0.0 
4.88335 3.58459 0.0 
5.19855 3.77202 0.0 
5.51432 3.95044 0.0 
4.9392 3.70561 0.0 
4.3767 3.6815 0.0 
4.9511 3.75427 0.0 
5.3246 4.57527 0.0 
5.32645 3.38281 0.0 
4.60668 3.63578 0.0 
4.60365 3.57026 0.0 
4.91332 3.70409 0.0 
4.71545 3.45346 0.0 
5.41425 3.74108 0.0 
4.09927 3.7916 0.0 
4.95319 3.77246 0.0 
4.92992 3.75191 0.0 
4.93617 3.66036 0.0 
4.78601 3.62559 0.0 
5.61409 3.77159 0.0 
4.69234 3.59278 0.0 
4.93084 3.66399 0.0 
5.58393 3.71342 0.0 
4.06251 3.95098 0.0 
5.55666 3.59673 0.0 
4.08041 3.91428 0.0 
4.95584 3.83487 0.0 
4.60765 3.54892 0.0 
5.44299 3.40381 0.0 
5.16304 3.8247 0.0 
5.40599 3.2593 0.0 
5.33134 3.62587 0.0 
4.34173 3.67796 0.0 
5.11654 3.80431 0.0 
5.31547 3.56749 0.0 
4.5123 3.57733 0.0 
5.53392 3.67156 0.0 
4.98174 3.87864 0.0 
4.69568 3.7148 0.0 
4.85543 3.59086 0.0 
5.48208 3.45816 0.0 
4.12622 3.85066 0.0 
5.04041 3.68839 0.0 
4.20434 3.75559 0.0 
4.32677 3.73559 0.0 
4.11433 3.86029 0.0 
4.92048 3.73258 0.0 
4.83348 3.70275 0.0 
5.39943 3.88844 0.0 
4.91075 3.59795 0.0 
4.39017 3.63196 0.0 
5.02212 3.77423 0.0 
5.39161 3.66211 0.0 
4.15635 3.67333 0.0 
4.93323 3.6547 0.0 
5.37596 4.14237 0.0 
4.68296 3.81074 0.0 
4.91222 3.61459 0.0 
4.92169 3.63945 0.0 
4.58087 3.70373 0.0 
4.78951 3.74059 0.0 
4.06781 3.93708 0.0 
4.05687 3.95048 0.0 
4.46842 4.17009 0.0 
4.70156 3.41116 0.0 
4.94684 3.87736 0.0 
4.40011 3.59668 0.0 
4.33898 3.65728 0.0 
5.02628 3.51213 0.0 
4.67549 4.09185 0.0 
5.06165 3.8241 0.0 
4.55074 3.6095 0.0 
4.15029 3.80561 0.0 
5.18584 3.48686 0.0 
4.11074 3.91274 0.0 
5.24644 3.53996 0.0 
4.54748 3.59487 0.0 
5.02878 3.72462 0.0 
4.99996 3.90311 0.0 
4.30722 3.6898 0.0 
4.91572 3.57654 0.0 
4.15081 3.79009 0.0 
4.11088 3.8512 0.0 
4.14602 3.83292 0.0 
4.20097 3.77187 0.0 
5.53831 3.83064 0.0 
4.21518 3.56747 0.0 
5.02045 3.80223 0.0 
5.04337 3.79811 0.0 
4.91422 3.56082 0.0 
5.61423 3.84419 0.0 
4.25378 3.6831 0.0 
4.82971 3.68039 0.0 
4.78812 3.57962 0.0 
4.07014 3.93733 0.0 
4.09222 3.90208 0.0 
5.24378 3.93359 0.0 
5.35184 3.76398 0.0 
4.66105 3.40145 0.0 
4.90771 3.60672 0.0 
4.07603 3.93408 0.0 
5.08307 3.67936 0.0 
4.09434 3.89333 0.0 
4.12536 3.83483 0.0 
4.76404 3.53139 0.0 
4.11707 3.89708 0.0 
4.09881 3.93183 0.0 
5.34223 3.19187 0.0 
5.12668 4.46896 0.0 
4.50585 3.56593 0.0 
4.90012 3.60686 0.0 
5.54444 3.54067 0.0 
4.8755 3.56416 0.0 
4.70606 3.43997 0.0 
4.14241 3.82325 0.0 
4.09822 3.87811 0.0 
5.05204 3.73024 0.0 
5.24795 3.79641 0.0 
5.02675 3.96924 0.0 
4.18241 3.90899 0.0 
5.64122 3.81199 0.0 
4.89477 3.58917 0.0 
4.92289 3.65643 0.0 
4.14178 3.83503 0.0 
4.92516 3.67155 0.0 
4.73366 3.46498 0.0 
4.60829 3.78125 0.0 
5.56855 3.43334 0.0 
4.40467 3.60176 0.0 
4.62184 3.50275 0.0 
5.39504 3.49664 0.0 
4.95418 3.73805 0.0 
4.90866 3.60622 0.0 
5.11907 3.57126 0.0 
4.67743 3.40565 0.0 
4.12152 3.74723 0.0 
4.8948 3.5714 0.0 
4.44943 3.60949 0.0 
4.37552 3.64497 0.0 
4.40704 3.75622 0.0 
4.90508 3.6114 0.0 
4.90755 3.62577 0.0 
5.16675 3.62333 0.0 
4.87666 3.66763 0.0 
5.74464 4.50888 0.0 
4.07896 3.93853 0.0 
4.89174 3.86515 0.0 
4.88964 3.58378 0.0 
4.4547 3.57512 0.0 
5.41492 4.36424 0.0 
4.11965 3.72149 0.0 
4.10398 3.8793 0.0 
5.7664 4.61328 0.0 
4.91209 3.6517 0.0 
4.70956 3.58345 0.0 
5.16494 4.02877 0.0 
4.71269 3.51475 0.0 
4.75992 3.5147 0.0 
5.09145 3.8456 0.0 
4.91998 3.60939 0.0 
5.11752 3.43652 0.0 
5.24978 3.72614 0.0 
4.53583 3.56327 0.0 
4.71864 3.41766 0.0 
4.93875 3.67347 0.0 
4.2043 3.72171 0.0 
4.75645 3.47041 0.0 
4.42014 3.63573 0.0 
4.74944 3.50681 0.0 
4.64679 3.5725 0.0 
4.90417 3.60489 0.0 
4.67715 3.47779 0.0 
4.82874 3.52104 0.0 
4.6566 3.45198 0.0 
5.07516 3.79199 0.0 
4.10641 3.86728 0.0 
4.13487 3.83513 0.0 
4.85052 3.58385 0.0 
[...]
<PointData>
  <DataArray type = "Float64" Name="Vitesse" NumberOfComponents="3" format="ascii">
0.0103425 -0.09278 0.0 
0.065739 -0.0663867 0.0 
0.072438 -0.187173 0.0 
0.0442047 -0.064877 0.0 
0.0269017 -0.121394 0.0 
0.0334485 -0.208554 0.0 
-0.0208939 0.0150236 0.0 
0.0457644 -0.122621 0.0 
0.00555105 -0.123237 0.0 
0.244733 -0.940337 0.0 
0.0959228 -0.100942 0.0 
0.0604195 -0.147285 0.0 
0.0468009 -0.0879119 0.0 
0.0147244 -0.0692933 0.0 
-0.000319256 -0.00149427 0.0 
0.00278915 -0.157757 0.0 
-0.000241085 -0.00137842 0.0 
-0.0228246 -0.164639 0.0 
-0.0344882 -0.234802 0.0 
0.0203023 0.0201732 0.0 
-0.122282 -0.967585 0.0 
-6.38654e-42 5.61602e-42 0.0 
0.112377 -0.120425 0.0 
0.0934762 0.0428585 0.0 
0.0881697 -0.138631 0.0 
0.0359561 -0.0589859 0.0 
0.124296 -0.187518 0.0 
1.65549e-21 -4.42706e-21 0.0 
0.134921 -0.134976 0.0 
0.253572 -0.238076 0.0 
-0.000345473 -0.00122902 0.0 
0.226065 -0.150247 0.0 
-0.0102466 -0.110484 0.0 
0.152163 -0.154237 0.0 
0.00640893 -0.0177948 0.0 
0.0493342 0.0117987 0.0 
0.0919867 -0.0528662 0.0 
-0.258156 -0.950584 0.0 
-0.00713986 -0.0754823 0.0 
-0.0112282 0.00249989 0.0 
0.107444 -0.164037 0.0 
2.30653e-62 8.17345e-62 0.0 
-0.000168206 -0.00465584 0.0 
0.2332 -0.209378 0.0 
0.0657544 0.000895839 0.0 
0.027734 -0.159045 0.0 
2.62904e-39 1.45402e-39 0.0 
-0.000217005 -0.0012566 0.0 
0.415452 -0.827425 0.0 
0.131977 -0.642188 0.0 
-0.0437479 -0.012043 0.0 
0.0573437 0.000221631 0.0 
0.0459105 -0.975659 0.0 
-0.163062 -0.689555 0.0 
0.0966037 -0.0715651 0.0 
-0.0560336 -0.0311892 0.0 
0.314381 -0.882782 0.0 
0.247826 -0.867981 0.0 
0.145394 -0.101233 0.0 
0.000225127 1.67722e-05 0.0 
0.0595458 -0.927724 0.0 
0.0527654 -0.870052 0.0 
-0.0004243 -0.00167611 0.0 
0.114394 -0.134609 0.0 
0.247244 -0.175426 0.0 
0.323975 -0.893318 0.0 
0.503467 -0.617842 0.0 
-0.0504395 -0.0102342 0.0 
-0.114485 -0.841902 0.0 
-0.201755 -0.972936 0.0 
-6.90389e-38 3.78674e-37 0.0 
-0.0226196 -0.0501039 0.0 
1.00745e-05 -4.34999e-05 0.0 
0.13339 -0.0316106 0.0 
-0.013554 -0.826308 0.0 
0.00899301 0.000800871 0.0 
-0.103723 -0.869676 0.0 
-0.0354866 -0.102734 0.0 
-0.286464 -0.431253 0.0 
-0.00158939 -0.00130379 0.0 
-0.459076 -0.759937 0.0 
-0.114186 -0.989163 0.0 
-0.482456 -0.74641 0.0 
-0.293516 -0.895341 0.0 
-0.0264328 0.0085496 0.0 
-0.00945838 -0.434917 0.0 
1.77924e-25 -7.25066e-25 0.0 
0.000615259 -0.00596136 0.0 
0.239687 -0.909953 0.0 
-0.0231003 -0.0615688 0.0 
0.0280993 -0.0145384 0.0 
0.156641 -0.963621 0.0 
-0.451533 -0.577531 0.0 
-0.51945 -0.689083 0.0 
-0.474502 -0.652283 0.0 
0.0883486 -0.0233439 0.0 
0.0173965 -0.0376965 0.0 
-0.44892 -0.668352 0.0 
3.91133e-21 -9.93754e-21 0.0 
-0.503461 -0.638418 0.0 
0.22232 -0.226961 0.0 
-0.0121076 -0.968937 0.0 
-0.411472 -0.797975 0.0 
0.0635376 -0.0449758 0.0 
-1.24946e-05 -1.20615e-05 0.0 
-0.000812863 -0.00114163 0.0 
-0.0570822 -0.652307 0.0 
0.0967082 -0.643208 0.0 
0.00590972 -0.0380525 0.0 
-0.527655 -0.688838 0.0 
0.164873 -0.181279 0.0 
0.059358 -0.948484 0.0 
0.15979 -0.0227459 0.0 
0.617018 -0.638048 0.0 
0.0138232 0.0411911 0.0 
0.804592 -0.352538 0.0 
0.740606 -0.525883 0.0 
-0.0169242 -0.397165 0.0 
-0.0337098 0.0156577 0.0 
0.265274 -0.220663 0.0 
0.0291719 -0.0410857 0.0 
0.560038 -0.633363 0.0 
-0.393092 -0.674843 0.0 
-0.0443666 -0.16992 0.0 
0.637717 -0.567168 0.0 
0.0546954 -0.0241627 0.0 
0.181367 0.0218623 0.0 
0.0217848 -0.0282521 0.0 
0.0327188 -0.995286 0.0 
-0.0469576 -0.153479 0.0 
0.21401 -0.0259898 0.0 
0.261842 -0.234984 0.0 
0.60378 -0.674406 0.0 
-0.0216627 -0.351755 0.0 
-4.80215e-05 -7.72601e-05 0.0 
0.02446 0.0667679 0.0 
-0.0372542 -1.03549 0.0 
0.359387 -0.207228 0.0 
0.115512 -0.0321203 0.0 
0.0632339 -0.0282478 0.0 
0.17248 0.00368861 0.0 
-0.36614 -0.756763 0.0 
0.0121213 -0.000174339 0.0 
0.430249 -0.42945 0.0 
0.000664953 -0.00578519 0.0 
0.059242 -0.870303 0.0 
0.458733 -0.715775 0.0 
-0.0495195 -0.914607 0.0 
3.25696e-62 1.15414e-61 0.0 
0.0154699 0.006172 0.0 
0.0419426 0.0124221 0.0 
-0.00147072 -0.00127783 0.0 
-0.0537565 -0.0683442 0.0 
0.217006 -0.798459 0.0 
0.0717602 -0.0310548 0.0 
0.484203 -0.249726 0.0 
-0.00157754 -0.00364216 0.0 
0.10578 -1.03546 0.0 
-0.00151217 -0.00189688 0.0 
-0.0373998 0.041054 0.0 
0.171777 0.035404 0.0 
0.414329 -0.325734 0.0 
0.0241736 0.00567024 0.0 
0.0835301 -0.0364274 0.0 
5.4e-21 -7.06501e-21 0.0 
-0.000485503 -0.00449872 0.0 
0.0190921 0.00730441 0.0 
0.0349638 0.0265715 0.0 
0.189643 -0.24376 0.0 
8.60027e-22 -1.28895e-21 0.0 
-8.42055e-37 7.21486e-37 0.0 
0.00558831 -0.00707526 0.0 
-0.000749201 -0.00156137 0.0 
-0.000298107 -0.00129059 0.0 
-0.000913068 -0.000900909 0.0 
1.19398e-21 -7.17347e-21 0.0 
0.0977799 -0.0358747 0.0 
-0.0360787 -0.0847755 0.0 
0.337197 -0.788597 0.0 
0.0136174 -0.000403821 0.0 
0.021139 -1.00862 0.0 
-0.00131668 -0.00131637 0.0 
0.181044 0.00974608 0.0 
0.154313 -0.213544 0.0 
1.18239e-05 -3.15746e-05 0.0 
0.285125 -0.738142 0.0 
0.0550224 0.0100264 0.0 
0.000245492 -0.0047312 0.0 
-0.0242228 0.0194852 0.0 
-0.000762561 -0.00194393 0.0 
0.113343 -0.088268 0.0 
0.00947514 -0.988231 0.0 
0.00937829 -0.00166143 0.0 
0.00274151 -0.00186933 0.0 
0.117293 -0.178728 0.0 
-0.000604537 -0.00105909 0.0 
-0.34956 -0.876977 0.0 
-0.17266 -1.00335 0.0 
0.11352 -0.210059 0.0 
0.00642015 -0.562768 0.0 
0.0813532 -0.943983 0.0 
-0.179409 -0.419826 0.0 
0.000157247 8.73464e-05 0.0 
-0.191508 -0.285723 0.0 
-0.0626086 -0.225225 0.0 
-0.000719249 -0.0033083 0.0 
0.0263239 -0.0031668 0.0 
-0.0201457 0.0593676 0.0 
0.162827 -0.688234 0.0 
-0.00170759 -0.0033303 0.0 
-0.129085 -0.27698 0.0 
0.512434 -0.603571 0.0 
0.192607 -0.188414 0.0 
0.0364518 -0.0423427 0.0 
-0.0158585 -0.0705199 0.0 
-0.000960548 -0.00285513 0.0 
0.00162084 -0.00323344 0.0 
0.256243 -0.115731 0.0 
0.000123298 -0.0131411 0.0 
0.00425086 0.00155057 0.0 
-0.0013929 -0.00375109 0.0 
0.493558 -0.700675 0.0 
0.116471 -0.79736 0.0 
0.017121 0.0152407 0.0 
0.666863 -0.612622 0.0 
0.484698 -0.761084 0.0 
0.000178836 -0.0032215 0.0 
0.0140032 -0.00447369 0.0 
0.252388 -0.303039 0.0 
0.423107 -0.53859 0.0 
0.0791676 -0.909408 0.0 
0.00373565 -0.771956 0.0 
-7.35015e-05 -0.00521095 0.0 
0.0361402 -0.013234 0.0 
-0.0183427 -0.981971 0.0 
0.00721553 -0.00598119 0.0 
0.00117204 0.00151551 0.0 
0.160219 0.0407306 0.0 
0.535452 -0.472375 0.0 
0.209598 -0.590702 0.0 
0.00521671 -0.00507896 0.0 
0.00240874 -0.00161867 0.0 
-0.116756 -0.390755 0.0 
-0.381262 -0.801687 0.0 
-0.00171981 -0.00204171 0.0 
-0.000609402 -0.00278719 0.0 
-0.165318 -0.878414 0.0 
0.180319 -0.0601135 0.0 
0.212258 -0.231044 0.0 
0.0714848 -0.0165531 0.0 
0.000803087 -0.00299391 0.0 
-0.161308 -0.805256 0.0 
0.00440957 -0.00270669 0.0 
0.603965 -0.319152 0.0 
-0.0610878 0.0120404 0.0 
0.082222 -0.205556 0.0 
-0.00166754 -0.00221784 0.0 
-0.0354026 0.0494146 0.0 
0.3171 -0.575454 0.0 
0.00433917 -0.00105269 0.0 
0.231667 -0.332897 0.0 
-0.0111536 -0.00634383 0.0 
0.148063 -0.0335024 0.0 
0.782253 -0.285863 0.0 
-0.0164922 -0.00670313 0.0 
0.0966434 -1.02194 0.0 
-0.000298455 -0.00485132 0.0 
0.0169982 0.0219247 0.0 
-0.105524 -0.815031 0.0 
-0.000538188 -0.00119096 0.0 
-0.211626 -0.934656 0.0 
0.00179668 0.00188211 0.0 
4.60625e-24 -1.87711e-23 0.0 
0.0029775 -0.00564979 0.0 
-0.00124214 -0.000975015 0.0 
2.94344e-21 -4.65794e-21 0.0 
4.32991e-08 -1.86959e-07 0.0 
4.62258e-42 2.60544e-42 0.0 
-0.0988783 -1.03607 0.0 
0.2281 -0.115449 0.0 
0.0053679 -0.0743913 0.0 
0.0317949 0.00575413 0.0 
0.134459 -0.970688 0.0 
0.0610148 -1.00488 0.0 
-3.38818e-20 -1.59065e-20 0.0 
0.193837 -0.267917 0.0 
-0.000358262 -0.00135406 0.0 
-0.0661879 -0.346711 0.0 
-0.0110501 0.0459765 0.0 
0.308371 -0.794241 0.0 
-0.000790354 -0.00148974 0.0 
-0.014023 0.0547772 0.0 
0.0213535 -1.02054 0.0 
-0.227049 -0.898287 0.0 
0.211537 -0.0454671 0.0 
0.00449476 -0.00793876 0.0 
0.265027 -0.109176 0.0 
-0.109395 -0.261719 0.0 
0.396751 -0.661377 0.0 
0.0240965 -0.00805981 0.0 
0.0100938 -0.00213924 0.0 
0.193506 0.0100841 0.0 
-5.44904e-22 -3.31722e-22 0.0 
0.0668915 -1.0215 0.0 
-3.52812e-55 4.15498e-54 0.0 
0.267291 -0.132935 0.0 
0.238982 -0.0675972 0.0 
0.0776649 -0.11295 0.0 
0.0422193 0.0094926 0.0 
0.0583104 -0.781629 0.0 
0.0207177 -0.00147198 0.0 
0.109451 -0.050452 0.0 
0.177386 -0.811858 0.0 
-0.000286939 -0.00120191 0.0 
0.412809 -0.77075 0.0 
-0.00105986 -0.000853199 0.0 
0.230244 -0.193798 0.0 
0.00621896 -0.000938257 0.0 
0.582142 -0.648691 0.0 
0.0425613 -0.966325 0.0 
0.569807 -0.392262 0.0 
0.16333 -0.993865 0.0 
0.00165606 -0.00629889 0.0 
0.07315 -0.960219 0.0 
0.212257 -0.938122 0.0 
0.00540772 -0.00286811 0.0 
0.240505 -0.857419 0.0 
0.205009 -0.265389 0.0 
0.0599743 -0.0214629 0.0 
0.0113825 0.0475487 0.0 
0.573041 -0.697201 0.0 
-0.00150887 -0.00121034 0.0 
-0.0448619 -0.867214 0.0 
-0.00151866 -0.00197171 0.0 
0.00365133 -0.00957792 0.0 
-0.00139723 -0.00123368 0.0 
0.219934 -0.0317708 0.0 
0.109975 -0.00375497 0.0 
-0.117341 -1.02733 0.0 
-0.0527921 -0.108052 0.0 
0.00198929 -0.00447676 0.0 
0.178823 -0.60939 0.0 
0.164623 -0.99578 0.0 
-1.12198e-37 1.93056e-37 0.0 
0.0626674 -0.101451 0.0 
-0.305875 -0.844133 0.0 
0.0721819 -0.0506499 0.0 
-0.00751521 -0.0464902 0.0 
0.0454114 -0.0423038 0.0 
0.0335683 -0.0183318 0.0 
0.104397 -0.0292288 0.0 
-0.000792809 -0.000939591 0.0 
-0.000497775 -0.00106148 0.0 
-0.0502194 -0.0721075 0.0 
-0.0354277 -0.0182634 0.0 
0.191818 -0.205258 0.0 
0.0011719 -0.00286108 0.0 
0.000251846 -0.00502744 0.0 
-0.136921 -0.629982 0.0 
0.0167477 -0.129361 0.0 
0.153064 -0.793204 0.0 
0.0129163 -0.00526324 0.0 
-0.000864548 -0.000886756 0.0 
0.106535 -0.785394 0.0 
-0.000634637 -0.00172866 0.0 
0.152644 -0.894619 0.0 
0.0101234 -0.00399455 0.0 
0.0503634 -0.775154 0.0 
0.187488 -0.323696 0.0 
0.000225424 -0.00534914 0.0 
-0.165201 -0.266766 0.0 
-2.30758e-86 6.45139e-86 0.0 
-0.000514913 -0.000343417 0.0 
-0.00159668 -0.00143228 0.0 
-0.00147632 -0.00238899 0.0 
-0.0605512 -0.894825 0.0 
6.97749e-22 -1.13069e-21 0.0 
0.213268 -0.528971 0.0 
0.164292 -0.726915 0.0 
-0.189744 -0.310373 0.0 
-0.0902459 -0.784029 0.0 
-0.000610134 -0.000914219 0.0 
0.0929801 0.00822938 0.0 
0.0153754 0.00949048 0.0 
-0.000718345 -0.00100354 0.0 
-0.00119307 -0.00103184 0.0 
-0.0568111 -0.952828 0.0 
0.0231115 -1.05968 0.0 
-0.00825458 -0.00247629 0.0 
-0.0108322 -0.0355366 0.0 
-0.000684611 -0.00106937 0.0 
-0.0430045 -0.956005 0.0 
-0.00124925 -0.00104312 0.0 
-0.00118931 -0.000772505 0.0 
0.0049087 0.00160155 0.0 
-0.000962454 -0.00161188 0.0 
-0.000233802 -0.00171379 0.0 
0.355086 -0.26435 0.0 
-0.0366746 -0.331434 0.0 
0.00355122 -0.00211722 0.0 
0.0132646 0.0204932 0.0 
0.512169 -0.730738 0.0 
-0.0273964 0.0295864 0.0 
-1.77446e-20 -9.44549e-21 0.0 
-0.00169889 -0.00122436 0.0 
-0.0013222 -0.000983901 0.0 
0.0357871 -0.882845 0.0 
0.00202126 -1.0438 0.0 
0.147637 -0.463815 0.0 
0.00117108 -0.00630712 0.0 
-0.0267059 -0.739693 0.0 
-0.0190683 0.0079177 0.0 
0.0985071 -0.00466988 0.0 
-0.00165653 -0.00128199 0.0 
0.147567 0.00298815 0.0 
-4.44147e-22 -2.76021e-22 0.0 
0.0491193 -0.0358489 0.0 
0.734489 -0.562934 0.0 
0.00155544 -0.00316781 0.0 
1.87838e-05 3.0922e-06 0.0 
0.39856 -0.822003 0.0 
0.255417 -0.11661 0.0 
-0.0160238 -0.0464589 0.0 
-0.0278948 -0.854389 0.0 
-0.00305291 -0.00140716 0.0 
-1.31263e-40 5.73645e-40 0.0 
-0.0888262 -0.0580123 0.0 
0.00434101 -0.00452308 0.0 
0.00170588 -0.00503948 0.0 
0.0128126 -0.0176393 0.0 
0.00862966 0.00115469 0.0 
0.0407969 0.0225054 0.0 
0.0169628 -0.944531 0.0 
0.111371 0.0404239 0.0 
-0.610084 -0.455789 0.0 
-0.000439864 -0.00125917 0.0 
0.170784 -0.145846 0.0 
-0.0282192 0.0280709 0.0 
0.00190706 -0.00270362 0.0 
-0.370962 -0.601396 0.0 
1.42048e-25 -7.78607e-25 0.0 
-0.00126144 -0.00113756 0.0 
-0.532628 -0.389036 0.0 
0.101666 0.0430718 0.0 
0.0186481 0.000387533 0.0 
-0.00357099 -0.733509 0.0 
0.00371394 0.00103294 0.0 
0.00190217 0.000519873 0.0 
0.122492 -0.879312 0.0 
-0.0593273 -0.153243 0.0 
0.0398093 -0.66181 0.0 
0.0325578 -1.05022 0.0 
0.00459396 -0.00192653 0.0 
-0.0444611 -0.0259788 0.0 
0.128672 -0.0972391 0.0 
8.21186e-62 2.90996e-61 0.0 
-1.32743e-20 -7.94354e-21 0.0 
0.00447238 -0.00568071 0.0 
1.37629e-41 7.36775e-42 0.0 
0.0128191 -0.00196542 0.0 
-0.0020674 -0.012318 0.0 
1.57751e-41 8.93209e-42 0.0 
-0.00406255 -0.000738245 0.0 
7.93705e-38 3.6881e-38 0.0 
0.102765 -0.905354 0.0 
-0.00142393 -0.00113092 0.0 
-0.00176919 -0.00106498 0.0 
0.00489557 0.0401938 0.0 
0.026268 0.0175589 0.0 
-0.000732009 -0.00219387 0.0 
-0.358212 -0.86436 0.0 
-0.0453904 -1.05983 0.0 
0.397262 -0.708514 0.0 
-0.00539455 -0.0233739 0.0 
0.0286062 -0.00199797 0.0 
-3.54204e-41 5.16183e-41 0.0 
0.00799495 0.00110583 0.0 
-0.00629705 0.0609681 0.0 
0.0507452 -0.0049857 0.0 
-0.0110498 0.00414178 0.0 
0.147002 -0.906559 0.0 
-0.00091123 -0.00423417 0.0 
0.00499545 -7.37329e-05 0.0 
0.00263266 -1.06468 0.0 
0.0984273 -0.0192803 0.0 
-6.51726e-38 1.49908e-37 0.0 
0.000195742 4.8015e-05 0.0 
0.00997184 -0.0329816 0.0 
0.0367891 -0.0266572 0.0 
-0.00198265 0.0359235 0.0 
-0.127611 -0.106352 0.0 
0.00631572 0.00170931 0.0 
0.159839 0.029127 0.0 
0.0528756 0.00243455 0.0 
-0.00449958 0.016456 0.0 
-0.00571797 0.0290373 0.0 
-0.0752908 -0.0881197 0.0 
0.0160495 0.00374241 0.0 
-0.00436052 0.0324835 0.0 
-0.127376 -0.131321 0.0 
-0.0303376 -0.0164248 0.0 
0.00541337 0.00309336 0.0 
-0.00394287 0.0214975 0.0 
0.0265507 -0.0495014 0.0 
0.109535 0.000462398 0.0 
-0.00156724 -0.00168239 0.0 
0.00157788 -0.00171101 0.0 
0.0122089 0.0325161 0.0 
0.0632648 -0.0130623 0.0 
3.06293e-22 -3.03364e-21 0.0 
0.0543083 -0.0432227 0.0 
0.00398671 -0.00103553 0.0 
0.158861 -0.354749 0.0 
0.121854 0.00250966 0.0 
-9.55577e-22 -7.13855e-22 0.0 
-1.9604e-21 -1.00118e-21 0.0 
0.0699257 0.0152167 0.0 
-0.108347 -0.138849 0.0 
-1.26074e-05 -6.82566e-06 0.0 
0.0671423 -0.598009 0.0 
-0.00175988 -0.00110646 0.0 
0.133163 -0.666432 0.0 
-5.08704e-38 2.18526e-37 0.0 
-4.33187e-20 -2.21987e-20 0.0 
-0.00394428 0.0294681 0.0 
-0.00122806 -0.0012071 0.0 
0.0585397 -0.00923909 0.0 
0.10945 -0.176106 0.0 
-0.000788688 -0.00210731 0.0 
-4.8411e-06 -6.5763e-06 0.0 
0.00155807 -0.039685 0.0 
0.00140607 -0.00705864 0.0 
-0.00011165 -0.000151669 0.0 
-0.0183482 -0.00380954 0.0 
0.0789303 -0.0212054 0.0 
6.05529e-21 -1.2987e-20 0.0 
-0.100861 -0.0799642 0.0 
-0.00526102 0.0295222 0.0 
0.0953319 -0.30402 0.0 
0.0197753 -0.0177996 0.0 
-0.0279855 0.0539723 0.0 
-0.0487839 -0.0313852 0.0 
4.42138e-36 3.32136e-36 0.0 
-2.23515e-05 -3.0363e-05 0.0 
0.266735 -0.187941 0.0 
0.0133794 0.00163946 0.0 
-0.000236404 -0.000358259 0.0 
-0.0921583 -0.0568965 0.0 
0.0031716 0.010143 0.0 
3.27718e-23 -1.79344e-22 0.0 
0.00382284 -0.000700837 0.0 
-0.0554507 -0.846428 0.0 
0.0659114 -0.141988 0.0 
-0.216298 -0.204719 0.0 
-6.53224e-05 -2.67078e-05 0.0 
0.19459 -0.619142 0.0 
-0.0038943 0.0305276 0.0 
-0.0387877 0.0285888 0.0 
0.0105156 0.000111129 0.0 
-0.185002 -0.138138 0.0 
-0.0673532 -0.0481272 0.0 
-0.049889 0.0192758 0.0 
-0.00119949 -0.00222773 0.0 
-0.00520107 0.0320682 0.0 
0.0130733 0.027875 0.0 
0.071272 0.0266782 0.0 
0.328372 -0.842548 0.0 
-0.000460041 -0.00113008 0.0 
0.00276417 -0.005 0.0 
0.178035 -0.0193641 0.0 
-0.0121259 0.0218182 0.0 
-0.0143437 0.0209279 0.0 
-0.0532542 0.00987626 0.0 
-0.211712 -0.178244 0.0 
-0.00144341 -0.00160576 0.0 
0.0221529 -0.0218617 0.0 
0.00874152 0.0349055 0.0 
-0.131675 -0.202564 0.0 
7.77097e-06 -1.37955e-05 0.0 
0.0730902 -0.00154108 0.0 
0.00176338 -0.00045686 0.0 
-0.000272352 -0.00203318 0.0 
0.274 -0.174807 0.0 
-0.0161902 0.0160126 0.0 
0.0726235 -0.046116 0.0 
-0.0507239 0.0234056 0.0 
0.0431885 0.00068999 0.0 
0.00363151 0.00502854 0.0 
-0.595667 -0.548032 0.0 
0.00895233 -0.0525984 0.0 
0.00668492 0.00158958 0.0 
0.130738 -0.197777 0.0 
-0.0105429 0.013857 0.0 
0.00571386 -0.000143564 0.0 
0.000541718 -0.00489775 0.0 
0.00272659 -0.00376804 0.0 
-0.00308295 0.00741988 0.0 
0.186749 -0.00850228 0.0 
-0.000732029 -0.00168192 0.0 
-0.00141053 -0.00131329 0.0 
-0.188742 -0.206741 0.0 
0.0842134 -0.00693321 0.0 
-0.175005 -0.191444 0.0 
0.000442017 0.00333221 0.0 
0.044136 0.0338768 0.0 
-0.0331562 0.0326836 0.0 
-0.00123429 -0.00120454 0.0 
0.138396 -0.161132 0.0 
-0.0172294 -0.0581297 0.0 
-0.0070319 -0.482655 0.0 
-0.0641654 -0.100567 0.0 
9.955e-05 2.99474e-05 0.0 
0.0619986 0.00916907 0.0 
-0.00226964 -0.00104839 0.0 
-0.00232736 0.0283694 0.0 
-0.0177273 0.0332527 0.0 
0.249047 -0.148395 0.0 
0.002325 0.00625266 0.0 
0.216603 -0.0706114 0.0 
-0.0766487 -0.0935763 0.0 
0.109751 0.0313576 0.0 
-3.03105e-20 -1.72055e-20 0.0 
0.000320757 0.00441872 0.0 
-0.0520598 -0.0295849 0.0 
0.0076384 0.00672061 0.0 
-1.72721e-19 -1.35904e-19 0.0 
-0.000209822 -0.00244764 0.0 
-0.0367899 0.0274426 0.0 
0.0766127 0.0182645 0.0 
0.131982 -0.747401 0.0 
-0.00786953 0.0354866 0.0 
0.0652607 -0.0119645 0.0 
0.00241031 0.00208542 0.0 
-0.000106134 -0.0019982 0.0 
0.0315266 -0.107109 0.0 
-0.0200279 0.030076 0.0 
-0.0163811 0.01286 0.0 
0.00381734 -0.00667408 0.0 
0.20409 -0.349103 0.0 
0.0352492 0.0626166 0.0 
0.00230877 -0.00291008 0.0 
0.00479841 0.00253862 0.0 
-0.171325 -0.18799 0.0 
-0.000753812 -0.00411684 0.0 
0.0764453 0.00631176 0.0 
-8.18101e-20 -4.85692e-20 0.0 
0.00725404 0.0200199 0.0 
0.00298271 -0.00916805 0.0 
4.22713e-43 2.30302e-43 0.0 
-0.0381782 -0.274066 0.0 
-0.0068507 0.0338907 0.0 
-0.00301749 0.000907566 0.0 
-0.44956 -0.730886 0.0 
-0.000746632 -0.00207349 0.0 
0.0194789 0.021487 0.0 
0.00320032 0.00267168 0.0 
0.0722384 -0.00541487 0.0 
-0.0274699 -0.0264592 0.0 
-0.238322 -0.446277 0.0 
0.00866015 0.00234557 0.0 
0.0224112 0.0178852 0.0 
-0.000576383 -0.00112317 0.0 
-0.00379973 0.0107786 0.0 
-0.0101127 0.03701 0.0 
4.49586e-22 -7.14315e-22 0.0 
0.00667646 0.00353085 0.0 
0.0020614 0.000528341 0.0 
0.00170555 0.000491419 0.0 
-0.0220657 -0.101618 0.0 
0.000878441 0.000475763 0.0 
0.0128255 -0.00663056 0.0 
0.000425032 0.0453574 0.0 
-0.00646092 0.0194699 0.0 
-5.69693e-05 -0.00370872 0.0 
0.00794756 0.0258935 0.0 
0.0139963 0.00365358 0.0 
0.157621 0.0193279 0.0 
-0.00197539 -0.00227858 0.0 
0.00335972 0.00744472 0.0 
-0.00786849 0.0328586 0.0 
-0.0333295 -0.0143332 0.0 
0.000865982 0.00119976 0.0 
-0.00112146 -0.0013836 0.0 
-5.50735e-63 1.55415e-62 0.0 
-0.0904596 -0.0822239 0.0 
0.130746 -0.582983 0.0 
-0.00108301 0.0119911 0.0 
0.0165001 0.0257359 0.0 
0.129573 -0.0508293 0.0 
-0.0516603 0.00486017 0.0 
1.67315e-06 9.29386e-07 0.0 
-1.77051e-60 1.12775e-60 0.0 
0.109875 -0.0166418 0.0 
0.0191425 -0.155525 0.0 
0.0041498 0.0129585 0.0 
0.0880679 -0.737748 0.0 
-0.0366321 -0.0355874 0.0 
0.0242893 -0.0118829 0.0 
-0.0189222 0.0379348 0.0 
0.0516157 -0.0114265 0.0 
0.223074 -0.0208715 0.0 
-0.00496828 -0.0237652 0.0 
0.0085892 -0.0172558 0.0 
0.00980513 0.00989659 0.0 
-0.112708 -0.110689 0.0 
0.127027 0.0148776 0.0 
0.119127 0.0594966 0.0 
-0.0136191 -0.409082 0.0 
-0.00697405 0.0425672 0.0 
-0.0253125 -0.300647 0.0 
0.0100058 -0.00520347 0.0 
0.280991 -0.692359 0.0 
-0.209888 -0.261084 0.0 
-0.0371005 0.0102433 0.0 
-0.000970083 -0.00391197 0.0 
0.00182924 -0.000473924 0.0 
0.00226449 0.000533424 0.0 
0.14549 -0.0530727 0.0 
0.026041 0.00695319 0.0 
-0.0250946 0.0321085 0.0 
-0.0131667 0.0111949 0.0 
0.331571 -0.877195 0.0 
9.74195e-25 -7.02168e-24 0.0 
-0.00734208 0.0132702 0.0 
0.0920243 -0.485241 0.0 
3.87926e-37 1.20037e-37 0.0 
0.116835 -0.341067 0.0 
-0.00598868 -0.204659 0.0 
-0.144961 -0.264225 0.0 
-0.0318142 -0.294746 0.0 
-0.00561061 0.0328197 0.0 
-0.00116629 -0.000671026 0.0 
-0.067326 -0.00476209 0.0 
-0.0310522 -0.252227 0.0 
0.157944 -0.555173 0.0 
-0.0420937 0.016726 0.0 
-0.0343033 -0.0764855 0.0 
0.121369 -0.0138574 0.0 
0.0450787 -0.542804 0.0 
-0.178421 -0.223218 0.0 
-0.0397887 -0.00223211 0.0 
-0.0144774 0.0105709 0.0 
-0.0838815 -0.742353 0.0 
0.00821551 -0.00738841 0.0 
-8.14578e-21 -5.19747e-21 0.0 
0.0001188 -3.0779e-05 0.0 
-0.0293245 0.036405 0.0 
-0.0239474 0.00568255 0.0 
-0.163743 -0.477386 0.0 
-0.000693414 0.0269112 0.0 
-0.0519914 0.0265734 0.0 
0.0466867 0.0471583 0.0 
-0.532338 -0.577918 0.0 
0.0033065 0.00190204 0.0 