<VTKFile type="UnstructuredGrid" version="0.1" byte_order="LittleEndian">
  <UnstructuredGrid>
    <Piece NumberOfPoints="19147" NumberOfCells="38221">
      <Points>
        <DataArray type = "Float64" NumberOfComponents="3" format="ascii">
4.60617 3.5294 0.0 
4.72503 3.65622 0.0 
4.47875 3.18882 0.0 
4.05204 3.71657 0.0 
4.24707 3.28378 0.0 
4.06513 3.60319 0.0 
4.94604 2.9516 0.0 
4.49222 3.19994 0.0 
4.20866 3.31534 0.0 
4.39818 3.27992 0.0 
4.94331 2.94897 0.0 
4.92405 2.9446 0.0 
4.48761 3.19316 0.0 
5.24137 2.99248 0.0 
4.90786 2.94926 0.0 
4.3566 2.96703 0.0 
4.88003 2.94163 0.0 
4.35855 2.97423 0.0 
4.89095 2.93486 0.0 
4.86269 2.95113 0.0 
4.93076 2.95825 0.0 
4.11015 3.48676 0.0 
4.4975 3.20736 0.0 
4.49757 3.21012 0.0 
4.59688 3.54833 0.0 
4.13878 3.00196 0.0 
4.15804 3.03385 0.0 
5.32759 3.03233 0.0 
4.49178 3.20728 0.0 
5.34924 3.05459 0.0 
4.29924 3.09749 0.0 
5.29917 3.09226 0.0 
4.37909 2.93896 0.0 
4.04118 3.62324 0.0 
5.32321 3.07531 0.0 
5.29957 3.08471 0.0 
4.48593 3.20782 0.0 
4.02231 3.72494 0.0 
4.48323 3.19408 0.0 
4.9187 2.95067 0.0 
4.93592 2.92801 0.0 
4.79749 3.62377 0.0 
4.47775 3.17621 0.0 
4.61992 3.55349 0.0 
4.22635 3.29101 0.0 
4.39863 3.05324 0.0 
4.18218 3.00188 0.0 
4.91326 2.94025 0.0 
4.70348 3.66048 0.0 
4.48658 3.20062 0.0 
4.1445 3.43056 0.0 
5.21179 2.99821 0.0 
4.14544 3.00566 0.0 
4.19287 2.99226 0.0 
4.51152 3.38642 0.0 
4.92282 2.96243 0.0 
5.33382 3.08303 0.0 
4.1773 3.1722 0.0 
4.97495 2.95342 0.0 
4.21443 2.99154 0.0 
4.49666 3.32773 0.0 
4.32952 3.04913 0.0 
4.43722 2.99348 0.0 
4.59422 3.51071 0.0 
4.12829 3.51245 0.0 
4.93649 2.96009 0.0 
4.41513 2.92698 0.0 
4.16769 3.02172 0.0 
4.93422 2.95591 0.0 
5.29416 3.01563 0.0 
4.46234 3.17675 0.0 
4.03351 3.74591 0.0 
4.40146 2.94563 0.0 
4.64163 3.61189 0.0 
4.63179 3.58074 0.0 
4.28795 3.14091 0.0 
4.15235 3.40621 0.0 
4.28083 3.27175 0.0 
5.32592 3.05155 0.0 
4.5377 3.42374 0.0 
4.48039 3.16781 0.0 
4.92016 2.94891 0.0 
4.53561 3.43728 0.0 
4.70727 2.96253 0.0 
4.52033 3.43145 0.0 
4.95706 2.95508 0.0 
4.07916 3.64532 0.0 
4.04598 3.69122 0.0 
4.50302 3.42271 0.0 
4.30205 3.16717 0.0 
4.15506 3.01421 0.0 
4.53851 3.41336 0.0 
4.0296 3.56861 0.0 
4.79507 3.68627 0.0 
4.40357 2.951 0.0 
5.321 3.0707 0.0 
4.15607 3.1696 0.0 
4.1461 3.00195 0.0 
4.00954 3.75791 0.0 
5.34304 3.04748 0.0 
4.95108 2.95502 0.0 
4.92435 2.94941 0.0 
4.93537 2.92182 0.0 
5.03975 2.95682 0.0 
4.97076 2.94509 0.0 
5.14449 2.96005 0.0 
4.14247 3.00551 0.0 
5.33263 3.10469 0.0 
4.14385 3.00707 0.0 
4.44154 3.00449 0.0 
4.18543 3.30085 0.0 
4.13677 3.43131 0.0 
4.49091 3.19025 0.0 
4.42282 2.92287 0.0 
5.34589 3.06918 0.0 
5.3383 3.05183 0.0 
4.52376 3.37851 0.0 
4.54623 3.45161 0.0 
4.14516 3.00931 0.0 
4.52264 3.41922 0.0 
5.04231 3.86821 0.0 
5.34222 3.0632 0.0 
4.91369 2.95012 0.0 
4.97023 2.95116 0.0 
4.14574 3.0109 0.0 
5.03615 3.65566 0.0 
4.43548 2.95429 0.0 
4.92404 2.96864 0.0 
4.12885 3.43269 0.0 
4.608 3.44864 0.0 
4.48336 2.97322 0.0 
4.90723 2.95362 0.0 
4.2426 3.16178 0.0 
4.91781 2.95765 0.0 
4.91391 2.9347 0.0 
4.14061 3.00367 0.0 
4.68914 3.52437 0.0 
4.09475 3.55168 0.0 
4.14289 3.39196 0.0 
4.41364 3.2778 0.0 
4.96397 2.95317 0.0 
5.32896 3.07023 0.0 
4.93855 2.96532 0.0 
4.06535 3.61778 0.0 
4.09466 3.01566 0.0 
5.03659 3.79269 0.0 
4.95263 2.95179 0.0 
4.99456 2.94208 0.0 
4.51607 3.36083 0.0 
4.67242 2.96997 0.0 
4.49028 3.21325 0.0 
4.1349 3.00281 0.0 
4.46921 3.15512 0.0 
4.18971 3.14087 0.0 
4.39533 2.93459 0.0 
4.17803 3.00709 0.0 
4.11536 3.20649 0.0 
4.93455 2.97549 0.0 
4.12207 3.50501 0.0 
4.8964 2.96346 0.0 
5.16698 3.00669 0.0 
4.16633 3.01346 0.0 
4.90365 2.95594 0.0 
5.00488 3.84063 0.0 
4.16086 3.00378 0.0 
4.03163 3.7674 0.0 
4.89402 2.94084 0.0 
5.31457 3.06612 0.0 
4.97083 2.92365 0.0 
4.56496 3.44713 0.0 
4.41372 3.2834 0.0 
4.99166 3.91676 0.0 
4.09744 3.2143 0.0 
5.34368 3.03921 0.0 
4.03089 3.71018 0.0 
4.57748 3.47312 0.0 
4.92505 2.94108 0.0 
4.57737 3.49808 0.0 
4.39822 2.96673 0.0 
4.6905 2.93881 0.0 
4.31166 2.97395 0.0 
4.21329 3.16531 0.0 
4.14448 3.00471 0.0 
4.94165 2.95274 0.0 
4.90133 2.9432 0.0 
5.33974 3.03716 0.0 
4.59498 3.47139 0.0 
4.1439 3.00372 0.0 
5.32742 3.12269 0.0 
4.51317 3.40873 0.0 
4.10713 3.51424 0.0 
4.92748 2.95279 0.0 
5.00717 3.88479 0.0 
4.15638 3.00389 0.0 
4.88909 2.95008 0.0 
4.40433 2.96087 0.0 
4.10518 3.22657 0.0 
4.48222 3.14288 0.0 
4.21108 3.17096 0.0 
4.37215 2.95738 0.0 
4.93471 2.93309 0.0 
4.45957 3.14368 0.0 
5.33905 3.06056 0.0 
4.03025 3.7026 0.0 
4.55529 3.46652 0.0 
4.14251 3.00133 0.0 
4.45187 2.99211 0.0 
5.32595 3.04073 0.0 
4.05014 3.56518 0.0 
4.16639 3.16064 0.0 
4.06167 3.69003 0.0 
4.6271 3.53009 0.0 
5.33718 3.04899 0.0 
4.34727 3.07728 0.0 
4.119 3.0027 0.0 
4.1505 3.00909 0.0 
4.08 3.61722 0.0 
4.59546 3.49089 0.0 
4.6522 3.58732 0.0 
4.06069 3.62358 0.0 
4.94619 2.97423 0.0 
4.11102 3.20635 0.0 
4.15107 3.01087 0.0 
4.13909 3.10588 0.0 
4.14193 3.00857 0.0 
5.32801 3.09072 0.0 
4.6125 3.50838 0.0 
5.33653 3.02737 0.0 
4.14831 3.0273 0.0 
4.51557 3.34744 0.0 
5.32222 3.00883 0.0 
4.38761 3.05843 0.0 
4.42405 2.95493 0.0 
4.41561 3.2951 0.0 
4.99401 3.86082 0.0 
4.95668 2.95299 0.0 
4.35093 3.1741 0.0 
4.11457 3.32874 0.0 
5.33497 3.05568 0.0 
4.09303 3.24097 0.0 
4.56578 3.4586 0.0 
4.96984 2.93893 0.0 
4.94559 2.9547 0.0 
4.12652 3.17828 0.0 
4.1505 3.19388 0.0 
4.55054 3.43596 0.0 
4.15536 3.16329 0.0 
4.95732 2.97157 0.0 
4.08798 3.48969 0.0 
4.14662 3.02121 0.0 
4.16645 3.38068 0.0 
4.13514 3.17854 0.0 
4.14137 3.41022 0.0 
4.47333 3.17793 0.0 
5.30285 3.12284 0.0 
4.0438 3.72752 0.0 
4.10059 3.23252 0.0 
4.48669 2.95569 0.0 
4.56418 3.43307 0.0 
5.30096 3.07691 0.0 
4.02329 3.69362 0.0 
4.15371 3.18457 0.0 
4.90694 2.95155 0.0 
4.40789 2.94505 0.0 
4.64051 3.55693 0.0 
4.47248 3.16581 0.0 
4.55455 3.42294 0.0 
5.00827 2.95941 0.0 
4.15756 3.41914 0.0 
4.91888 2.95553 0.0 
4.05009 3.54191 0.0 
5.3222 3.10691 0.0 
5.28499 3.1153 0.0 
4.4323 2.94678 0.0 
4.10835 3.17718 0.0 
4.48311 3.21266 0.0 
4.40938 2.93694 0.0 
4.09417 3.02615 0.0 
4.41267 2.94211 0.0 
4.40759 2.92915 0.0 
4.04907 3.60197 0.0 
5.2939 3.07391 0.0 
4.14719 3.00264 0.0 
4.20102 3.16551 0.0 
4.91762 2.94392 0.0 
4.1502 3.2251 0.0 
5.33111 3.05314 0.0 
4.95845 2.94438 0.0 
4.81973 2.96784 0.0 
4.08416 3.56826 0.0 
4.14084 3.20619 0.0 
4.05627 3.628 0.0 
4.13301 3.41329 0.0 
4.04409 3.74022 0.0 
4.07447 3.57164 0.0 
4.04243 3.68619 0.0 
4.15177 3.00334 0.0 
4.38133 3.03862 0.0 
4.92475 2.95581 0.0 
4.38458 3.3313 0.0 
4.25648 3.14762 0.0 
4.91408 2.95453 0.0 
5.33214 3.06183 0.0 
4.45653 3.34369 0.0 
5.34371 3.05118 0.0 
4.66426 3.62156 0.0 
4.2719 3.10144 0.0 
4.13058 3.00276 0.0 
4.74268 3.68416 0.0 
4.12807 3.0231 0.0 
4.41832 2.93322 0.0 
4.58345 3.45922 0.0 
4.16229 3.00791 0.0 
4.67438 2.95567 0.0 
4.41535 3.00984 0.0 
4.06633 3.44695 0.0 
5.00719 2.93879 0.0 
4.01981 3.71753 0.0 
4.09063 3.25594 0.0 
4.961 2.95702 0.0 
4.13149 2.99946 0.0 
4.14581 3.18877 0.0 
5.30788 2.99888 0.0 
4.09953 3.19074 0.0 
4.10864 3.53693 0.0 
4.92334 2.93623 0.0 
4.21855 3.1494 0.0 
4.97779 2.96011 0.0 
4.23223 3.30617 0.0 
4.91127 2.97535 0.0 
5.33669 3.05857 0.0 
4.86436 2.94184 0.0 
4.95082 2.95018 0.0 
4.44843 3.35133 0.0 
4.4818 3.37952 0.0 
4.42848 3.29871 0.0 
4.25698 3.12517 0.0 
4.1089 3.52105 0.0 
4.48425 3.19009 0.0 
4.82122 3.68802 0.0 
4.13103 3.00417 0.0 
5.00677 2.94714 0.0 
4.14991 3.00282 0.0 
4.41083 3.00453 0.0 
4.23971 3.16848 0.0 
4.89679 2.94716 0.0 
4.99768 3.9017 0.0 
4.38123 3.05281 0.0 
4.15248 3.00221 0.0 
4.16694 3.37054 0.0 
4.01761 3.707 0.0 
5.33839 3.07147 0.0 
5.14093 3.00576 0.0 
5.33467 3.06516 0.0 
4.05743 3.64143 0.0 
5.24292 3.22189 0.0 
5.30101 2.99313 0.0 
4.33407 2.99391 0.0 
4.15433 3.38625 0.0 
4.30851 3.16493 0.0 
4.02886 3.69133 0.0 
4.49073 3.35829 0.0 
4.12512 3.00087 0.0 
4.13522 3.0037 0.0 
4.50326 2.98812 0.0 
4.20225 3.00145 0.0 
5.03869 3.82891 0.0 
4.91361 2.95202 0.0 
4.37581 3.0485 0.0 
4.92826 2.9502 0.0 
5.19316 2.96016 0.0 
4.93435 2.94597 0.0 
4.87645 2.93303 0.0 
4.35135 3.33472 0.0 
4.26683 3.15704 0.0 
4.29877 3.17659 0.0 
4.27405 3.1546 0.0 
4.17186 3.01656 0.0 
4.89183 2.95786 0.0 
5.04025 3.64956 0.0 
5.32823 3.06628 0.0 
5.31137 3.08779 0.0 
4.95484 2.9388 0.0 
5.27975 2.98274 0.0 
4.88504 2.96635 0.0 
4.03339 3.68623 0.0 
4.13182 3.00652 0.0 
4.14815 3.00146 0.0 
4.17262 3.33221 0.0 
4.31807 3.1775 0.0 
4.34568 3.06465 0.0 
4.90123 2.92295 0.0 
4.22751 3.32184 0.0 
5.01967 3.86409 0.0 
4.6976 3.60052 0.0 
4.1414 3.00451 0.0 
4.41838 2.98127 0.0 
4.49632 3.21215 0.0 
4.02686 3.76055 0.0 
4.94605 2.95309 0.0 
4.98432 3.87741 0.0 
5.32325 3.08268 0.0 
5.24928 3.02988 0.0 
5.0418 2.96873 0.0 
4.1305 3.00131 0.0 
5.10928 2.94638 0.0 
4.89714 2.95256 0.0 
4.90503 2.93019 0.0 
5.34236 3.0672 0.0 
4.95392 2.94368 0.0 
4.42835 2.92566 0.0 
4.14695 3.00003 0.0 
4.06251 3.01569 0.0 
4.14139 3.00262 0.0 
4.94486 2.95018 0.0 
4.12654 3.00398 0.0 
4.01603 3.76535 0.0 
5.29463 3.00629 0.0 
4.92267 2.95918 0.0 
4.92542 2.97861 0.0 
4.94508 2.93412 0.0 
4.39928 3.00684 0.0 
4.46333 3.18177 0.0 
4.28995 2.98138 0.0 
5.31869 3.03831 0.0 
4.09995 3.48262 0.0 
4.38529 3.07016 0.0 
5.03643 3.65109 0.0 
5.00355 3.98038 0.0 
4.92688 2.94703 0.0 
4.13902 3.00283 0.0 
5.27953 3.00906 0.0 
4.92515 2.95443 0.0 
4.19534 3.15186 0.0 
4.40714 3.06614 0.0 
5.01744 4.01033 0.0 
4.92122 2.95366 0.0 
4.94809 2.94033 0.0 
5.33037 3.02179 0.0 
4.97317 2.94075 0.0 
4.38779 3.03281 0.0 
4.30175 3.27435 0.0 
4.39164 3.04782 0.0 
4.33521 2.96485 0.0 
4.81737 2.95978 0.0 
4.93033 2.94428 0.0 
4.02384 3.73225 0.0 
4.11797 3.48301 0.0 
4.50264 3.39409 0.0 
4.94034 2.95608 0.0 
4.94835 2.94448 0.0 
4.09428 3.39765 0.0 
4.40033 3.03092 0.0 
4.3292 3.17039 0.0 
4.36907 3.07093 0.0 
5.26546 3.07339 0.0 
5.33492 3.04153 0.0 
4.77206 3.65008 0.0 
4.94695 2.9478 0.0 
4.24511 3.30585 0.0 
4.03843 3.71411 0.0 
5.33591 3.0682 0.0 
5.25074 3.04428 0.0 
4.16525 3.00436 0.0 
4.05722 3.6882 0.0 
5.25903 2.98632 0.0 
4.11839 3.00042 0.0 
4.96749 2.9554 0.0 
[...]
<PointData>
  <DataArray type = "Float64" Name="Vitesse" NumberOfComponents="3" format="ascii">
-0.00387885 0.0117 0.0 
-0.0234812 0.0144291 0.0 
0.00051715 -0.00324009 0.0 
0.00704963 0.000555358 0.0 
0.00538841 0.010156 0.0 
0.00892419 0.0028377 0.0 
-0.0170022 -0.00144726 0.0 
-0.00759479 -0.000614353 0.0 
0.00735136 0.00725412 0.0 
-0.00245865 0.00577755 0.0 
0.00359173 -0.00841779 0.0 
0.0392596 -0.0577872 0.0 
-0.00483811 -0.00286495 0.0 
-0.117739 0.252502 0.0 
0.00504503 -0.100254 0.0 
-0.0266609 0.196213 0.0 
0.0691786 -0.179372 0.0 
-0.036158 0.193588 0.0 
0.119376 -0.149566 0.0 
-0.000716301 -0.226588 0.0 
-0.066841 -0.0390003 0.0 
0.0130683 0.0048713 0.0 
-0.00843162 0.00110501 0.0 
-0.0070898 0.00229471 0.0 
-0.00334981 0.0143773 0.0 
-0.000270761 -0.0165335 0.0 
-0.0996784 0.0130035 0.0 
-0.0629523 0.0923876 0.0 
-0.00636631 0.00289729 0.0 
-0.0189951 0.00864173 0.0 
0.00666733 0.0919539 0.0 
-0.135825 -0.0210269 0.0 
0.0337408 0.16418 0.0 
0.00115771 0.000402952 0.0 
-0.0820093 -0.00798442 0.0 
-0.137445 -0.00309829 0.0 
-0.00464388 0.00512415 0.0 
0.000463359 -2.57266e-05 0.0 
-0.0026632 -0.00142081 0.0 
-0.00725469 -0.0710554 0.0 
0.16855 -0.0284075 0.0 
-0.0325771 0.0018979 0.0 
0.00446266 -0.00980546 0.0 
-0.0056993 0.0126489 0.0 
0.00510056 0.00914473 0.0 
0.0828078 -0.0118729 0.0 
-0.0136599 0.0400667 0.0 
0.074252 -0.0868261 0.0 
-0.0198267 0.0172086 0.0 
-0.00476937 0.00113792 0.0 
0.0138106 0.00588295 0.0 
-0.185656 0.25759 0.0 
-0.0176285 -0.00729208 0.0 
0.0217309 0.04991 0.0 
-0.00232442 0.0063985 0.0 
-0.0977084 -0.0588815 0.0 
-0.0556119 -0.0396306 0.0 
-0.000545427 0.000521608 0.0 
-0.0322561 0.0650191 0.0 
0.0118469 0.0783787 0.0 
-0.00403435 0.00414037 0.0 
-0.0128579 0.145869 0.0 
0.0764591 -0.0638194 0.0 
-0.00256083 0.0110608 0.0 
0.0106981 0.00616854 0.0 
-0.081454 -0.0245065 0.0 
0.0615509 0.0961856 0.0 
-0.0740588 0.0249545 0.0 
-0.0492569 -0.0305024 0.0 
-0.11311 0.171004 0.0 
0.0127657 -0.00491165 0.0 
0.00492002 -0.000197759 0.0 
0.0210544 0.120693 0.0 
-0.00969405 0.0170393 0.0 
-0.00772028 0.0143202 0.0 
0.0193813 0.0319708 0.0 
0.013996 0.00661682 0.0 
-0.000160733 0.00968251 0.0 
-0.0757931 0.047269 0.0 
-0.000566902 0.00747778 0.0 
0.00528028 -0.0158442 0.0 
0.00613451 -0.067397 0.0 
0.000528307 0.00866062 0.0 
-0.0215909 -0.582265 0.0 
0.00132681 0.00904377 0.0 
-0.0444269 0.0249823 0.0 
0.00903785 0.00335096 0.0 
0.00875414 0.000754664 0.0 
0.00186748 0.00929452 0.0 
0.0027055 0.00274255 0.0 
-0.0505073 0.00694536 0.0 
-0.00147666 0.00668774 0.0 
-5.11559e-22 8.19527e-22 0.0 
-0.0398316 0.0162344 0.0 
0.0180671 0.108787 0.0 
-0.087996 0.00600182 0.0 
-0.0457745 0.0208847 0.0 
-0.0021358 -0.00738577 0.0 
-3.43764e-27 2.49632e-27 0.0 
-0.032769 0.0343869 0.0 
-0.0437219 0.0110965 0.0 
0.00180487 -0.0564112 0.0 
0.217436 -0.0297878 0.0 
-0.0538769 0.184133 0.0 
0.0322538 0.0557248 0.0 
-0.0294228 0.282861 0.0 
-0.0163462 -0.0110911 0.0 
-0.0557744 -0.0872684 0.0 
-0.0229039 -0.00900165 0.0 
0.0806761 -0.0795093 0.0 
0.00670984 0.00642938 0.0 
0.0135239 0.005696 0.0 
-0.00620789 -0.00520923 0.0 
0.0752455 0.0767035 0.0 
-0.0278138 -0.0218644 0.0 
-0.045233 0.0301654 0.0 
-0.00356635 0.00542824 0.0 
0.000422738 0.00926956 0.0 
-0.031729 -0.00688585 0.0 
0.000153644 0.00801501 0.0 
-0.0916654 0.0179102 0.0 
-0.0365502 -0.00273076 0.0 
-0.00239408 -0.084435 0.0 
-0.0147262 0.0545939 0.0 
-0.0376261 -0.00584422 0.0 
-0.0111163 0.0198242 0.0 
0.0669044 -0.00931407 0.0 
-0.144598 -0.0549623 0.0 
0.0133489 0.00537086 0.0 
-0.00465221 0.00479655 0.0 
0.103161 -0.176776 0.0 
-0.028368 -0.101339 0.0 
-0.0021488 0.00114587 0.0 
-0.0607552 -0.0725115 0.0 
0.117572 -0.0858293 0.0 
-0.00818343 -0.0138569 0.0 
-0.0104557 0.00391732 0.0 
0.00912162 0.0040551 0.0 
0.0149819 0.00624092 0.0 
-0.00203812 0.00525012 0.0 
-0.0300683 0.0408252 0.0 
-0.068539 -0.00280639 0.0 
-0.121158 -0.0188361 0.0 
0.00836221 0.00344486 0.0 
-0.0454634 -0.0616491 0.0 
-0.0894842 0.021561 0.0 
-0.0188709 0.0145109 0.0 
0.0545992 0.106198 0.0 
-0.00426989 0.0049615 0.0 
-0.0368182 -0.590673 0.0 
-0.00195062 0.00216528 0.0 
-0.00311832 -0.021065 0.0 
0.0172026 -0.0205744 0.0 
-0.0921858 0.0286681 0.0 
0.039809 0.139401 0.0 
-0.0316027 0.0362234 0.0 
-0.00099188 0.0012486 0.0 
-0.19628 -0.027793 0.0 
0.0110531 0.00606509 0.0 
-0.101186 -0.129245 0.0 
-0.287412 0.248939 0.0 
-0.0501506 0.0219269 0.0 
-0.0455534 -0.110761 0.0 
-0.0959964 0.03927 0.0 
-0.0140706 0.012264 0.0 
0.0047536 -0.000810871 0.0 
0.0723549 -0.140049 0.0 
-0.104418 0.0253235 0.0 
0.199666 0.0546434 0.0 
-0.00143098 0.0077008 0.0 
-0.00265191 0.00527536 0.0 
-0.0760941 0.055321 0.0 
-0.00371526 0.00222961 0.0 
-0.0282565 0.0535973 0.0 
0.00828045 0.000617613 0.0 
-0.00147741 0.00910754 0.0 
0.0666559 -0.0554146 0.0 
-0.00100774 0.011314 0.0 
0.00629515 0.104403 0.0 
0.128304 -0.6059 0.0 
-0.0122547 0.189679 0.0 
4.47395e-19 -2.93806e-19 0.0 
-0.0134892 -0.00873912 0.0 
-0.0255198 -0.0122217 0.0 
0.0529563 -0.11913 0.0 
-0.0368567 0.0640664 0.0 
-0.0030906 0.00747853 0.0 
-0.00920156 -0.0097052 0.0 
-0.0644181 -0.119897 0.0 
-0.000188375 0.00780566 0.0 
0.0102399 0.00518258 0.0 
-0.0245982 -0.0479618 0.0 
-0.0887736 0.0357822 0.0 
-0.0131938 0.00639879 0.0 
0.00192829 -0.152282 0.0 
0.0155667 0.0927118 0.0 
4.7464e-05 2.63635e-05 0.0 
0.0112715 -0.0348077 0.0 
3.88479e-19 -2.5671e-19 0.0 
-0.0109099 0.178891 0.0 
0.128657 -0.0313806 0.0 
0.0284 -0.0252137 0.0 
-0.0441878 0.00784905 0.0 
0.00918616 0.00124012 0.0 
0.000243841 0.0100386 0.0 
0.00159432 -0.0120733 0.0 
0.0849858 -0.100317 0.0 
-0.0724452 0.0740802 0.0 
0.000193755 4.40584e-05 0.0 
-0.0698067 0.0272613 0.0 
0.00883888 0.00141604 0.0 
-0.00588847 0.00963116 0.0 
-0.0474687 0.0386514 0.0 
0.0561926 0.0706535 0.0 
0.000896169 -0.039603 0.0 
-0.0319507 -2.73137e-05 0.0 
0.00825652 0.0040577 0.0 
-0.00273241 0.00916595 0.0 
-0.0102883 0.012881 0.0 
0.00820985 0.00350427 0.0 
-0.188579 0.000986727 0.0 
-0.00452161 0.00575157 0.0 
-0.0385071 0.00107073 0.0 
-0.110681 0.00436117 0.0 
-0.0283199 -0.0111329 0.0 
-0.0681476 -0.0505459 0.0 
-0.00423907 0.00911313 0.0 
-0.037038 0.0919467 0.0 
-0.0855516 -0.000375615 0.0 
-0.00463307 0.00447919 0.0 
-0.0403449 0.152635 0.0 
0.0801831 0.00718272 0.0 
0.0476381 0.0317285 0.0 
-0.00365929 0.0054806 0.0 
-0.0943627 0.0482772 0.0 
-0.028382 0.0240223 0.0 
-6.11124e-19 -1.95326e-19 0.0 
-1.07628e-33 6.18342e-34 0.0 
-0.05389 0.0251597 0.0 
0.000313051 -0.000449876 0.0 
-0.00099142 0.00865199 0.0 
0.080114 0.053232 0.0 
-0.040875 -0.00238471 0.0 
-0.0393713 0.021075 0.0 
-1.00869e-06 6.30412e-07 0.0 
-0.000783121 0.00766677 0.0 
-0.066722 0.0258933 0.0 
-0.169338 0.0260787 0.0 
0.013902 0.00437039 0.0 
-0.0702219 -0.0031866 0.0 
0.0140269 0.00601533 0.0 
-0.0323834 0.0181205 0.0 
0.0138318 0.00624928 0.0 
0.00643563 -0.00752983 0.0 
-0.11622 -0.0946303 0.0 
0.00605759 0.000290472 0.0 
0.00010384 -4.82207e-05 0.0 
0.119537 -0.180639 0.0 
-0.00206686 0.00656974 0.0 
-0.136383 0.0146224 0.0 
0.000629651 0.000225389 0.0 
-0.000779052 0.000475454 0.0 
-0.0124492 -0.102422 0.0 
0.027867 0.102457 0.0 
-0.00788855 0.0108309 0.0 
0.011036 -0.0145852 0.0 
-0.00190565 0.0063859 0.0 
-0.0769968 0.13143 0.0 
0.0139056 0.00663903 0.0 
-0.0446807 -0.0699799 0.0 
-3.38056e-35 3.74145e-35 0.0 
-0.0784486 -0.080387 0.0 
-0.159218 -0.0613175 0.0 
0.0625323 0.0147248 0.0 
-0.0417927 0.0132607 0.0 
-0.00080504 0.000967036 0.0 
0.0392007 0.105911 0.0 
-0.0739236 -0.0599384 0.0 
0.0361361 0.0907842 0.0 
0.0538388 0.11432 0.0 
0.00424788 0.00152167 0.0 
-0.154815 0.0300848 0.0 
-0.00545085 -0.00582475 0.0 
-8.93875e-07 3.90257e-07 0.0 
0.0451234 -0.0746746 0.0 
-8.75378e-22 -3.11178e-21 0.0 
-0.0631258 0.0364959 0.0 
0.0381764 0.0277234 0.0 
-0.111625 -0.343244 0.0 
0.00900376 0.0033003 0.0 
2.20684e-19 -1.72091e-19 0.0 
0.00805591 0.00355981 0.0 
0.0136168 0.0057209 0.0 
0.00555489 -0.000172979 0.0 
0.00922393 0.00229446 0.0 
0.00853494 0.000947348 0.0 
-0.00966454 0.000254404 0.0 
0.0548746 0.0422078 0.0 
-0.0475067 -0.054663 0.0 
0.0015983 0.00930672 0.0 
-0.0211161 0.0193908 0.0 
-0.0363846 -0.0827968 0.0 
-0.0611141 0.013712 0.0 
-0.00230216 0.005639 0.0 
-0.0319007 0.0244506 0.0 
-0.0128841 0.0158434 0.0 
-0.0315542 0.0895359 0.0 
-0.00190551 -0.0262598 0.0 
-0.027778 0.0183858 0.0 
-0.0731444 -0.0259744 0.0 
0.0525254 0.0825337 0.0 
-0.00252254 0.00739878 0.0 
-0.030299 0.0152683 0.0 
0.037048 -0.602451 0.0 
0.0647907 -0.0199285 0.0 
-1.72804e-33 1.64609e-33 0.0 
0.0798355 0.129413 0.0 
0.000146885 4.95549e-05 0.0 
1.86306e-08 -2.29386e-08 0.0 
-0.0594372 0.0341617 0.0 
0.013136 -0.0259994 0.0 
-3.01141e-05 1.4745e-05 0.0 
-0.0394669 0.188387 0.0 
-0.026382 0.0083578 0.0 
0.00954803 0.00490473 0.0 
0.104783 -0.0601955 0.0 
-0.0666638 0.0178993 0.0 
-0.0832437 0.071039 0.0 
0.00595447 0.00926264 0.0 
-0.192064 -0.0869028 0.0 
-0.0498758 0.0158151 0.0 
0.0701025 -0.223659 0.0 
-0.00629068 0.0100711 0.0 
-0.0010866 0.00654729 0.0 
-0.00095885 0.00705616 0.0 
-0.00415582 0.00530374 0.0 
-0.0334628 0.051139 0.0 
0.0100413 0.00522208 0.0 
-0.00264226 -0.00374821 0.0 
-0.0470111 0.015939 0.0 
-0.00820281 -0.0254185 0.0 
0.0156121 0.12943 0.0 
-0.0069711 -0.00228111 0.0 
0.0547765 -0.000616132 0.0 
-6.04181e-05 6.31354e-05 0.0 
0.0230311 -0.13115 0.0 
-0.0827927 0.0460621 0.0 
0.0698704 0.0267635 0.0 
-0.00506026 0.000843921 0.0 
0.0132883 0.00572333 0.0 
1.23968e-05 4.49636e-06 0.0 
-0.0456814 -0.0176952 0.0 
-0.311466 0.242389 0.0 
-0.0549006 0.00230755 0.0 
0.00823885 0.00288702 0.0 
-0.170181 -0.236725 0.0 
-0.031164 0.205594 0.0 
-0.0584682 0.207105 0.0 
0.0151563 0.00626886 0.0 
0.0112011 0.010567 0.0 
0.00597377 0.0019581 0.0 
-0.00318551 0.00534938 0.0 
0.00801587 -0.0331109 0.0 
-0.00708114 -0.0204783 0.0 
0.083609 -0.219447 0.0 
-0.0201353 0.067371 0.0 
-0.0938643 0.019259 0.0 
-0.0170046 -0.0843981 0.0 
0.0604851 0.0440307 0.0 
-0.0047184 -0.0462221 0.0 
0.00892769 0.302716 0.0 
0.0275881 -0.0311139 0.0 
0.136308 -0.191238 0.0 
0.00468383 0.0114406 0.0 
-0.00126338 0.00714589 0.0 
-5.67185e-20 -2.1723e-20 0.0 
0.00282708 0.0116574 0.0 
-0.0606523 0.0299651 0.0 
-0.0580041 -0.143041 0.0 
-0.00588332 0.0111231 0.0 
-0.0706009 0.0077871 0.0 
-0.107991 -0.0238132 0.0 
0.0819388 0.0190527 0.0 
-0.0196898 0.239696 0.0 
-0.120256 -0.160209 0.0 
0.00907489 0.00207442 0.0 
-0.01823 -0.0239939 0.0 
-0.000579416 -0.00492458 0.0 
0.00903118 0.00598394 0.0 
-3.70425e-20 -1.22669e-20 0.0 
0.0392108 0.091568 0.0 
0.21165 -0.121692 0.0 
0.00736229 0.00899555 0.0 
-0.0928218 0.0273633 0.0 
-0.0161743 0.00939024 0.0 
-0.0119234 -0.012669 0.0 
0.0474985 0.00897013 0.0 
-0.00539214 0.0040198 0.0 
0.00430778 -0.000314987 0.0 
-0.0284816 -0.0013535 0.0 
-0.0899263 0.0608427 0.0 
-0.0809071 -0.0258257 0.0 
-0.239483 0.183092 0.0 
-0.138753 0.183307 0.0 
0.00468626 -0.0266909 0.0 
0.0450852 0.263067 0.0 
-0.0185867 -0.129292 0.0 
0.154052 -0.110331 0.0 
-0.03625 -0.0125498 0.0 
0.0439902 0.016976 0.0 
0.0742781 0.0578185 0.0 
0.0061976 -0.00686845 0.0 
-0.037519 -0.0837148 0.0 
-0.00384351 -0.0131259 0.0 
-0.00595396 -0.00445586 0.0 
-0.00638359 -0.0307546 0.0 
1.85096e-06 -3.01754e-08 0.0 
-0.0875034 0.189014 0.0 
-0.0730693 -0.0596148 0.0 
-0.218189 -0.0500471 0.0 
0.119401 -0.00509268 0.0 
0.0408112 0.0331864 0.0 
0.0101092 -0.00265895 0.0 
-0.0139029 0.172344 0.0 
-0.0890773 0.0896245 0.0 
0.013309 0.00427315 0.0 
0.0857956 0.00563634 0.0 
-0.00633934 0.018071 0.0 
-0.0469703 0.0528354 0.0 
0.0200661 -0.0501161 0.0 
-0.00418721 -0.0160349 0.0 
-0.123459 0.198076 0.0 
-0.0370141 -0.0538056 0.0 
-0.0747333 0.0243663 0.0 
0.0890411 -0.0307847 0.0 
-0.0349683 0.0452977 0.0 
-0.0305882 -0.0640932 0.0 
0.0704586 0.00285635 0.0 
-0.0449161 0.113397 0.0 
0.0657997 0.0608275 0.0 
0.0560535 0.0316275 0.0 
0.00043994 0.0110226 0.0 
0.0745721 0.00684504 0.0 
-0.00841895 0.197218 0.0 
-0.0529149 -0.352329 0.0 
0.0411021 -0.0414824 0.0 
0.00294203 -0.000188056 0.0 
0.0129736 0.00558535 0.0 
-0.00100899 0.00729641 0.0 
-0.0511021 -0.0152034 0.0 
0.0381158 0.00367806 0.0 
-1.33429e-34 1.45921e-34 0.0 
0.0679431 -0.000144091 0.0 
0.000650374 0.000299626 0.0 
0.0747911 0.0366719 0.0 
-0.228198 0.0613697 0.0 
-0.0507276 0.0600417 0.0 
-0.0314663 0.00945025 0.0 
0.0124187 0.000423306 0.0 
0.00576416 0.0101866 0.0 
0.00688362 0.000614414 0.0 
-0.0517946 -0.00663705 0.0 
-0.258942 0.149141 0.0 
-0.0176085 0.0182697 0.0 
0.00888732 0.00117629 0.0 
-0.0645699 0.249784 0.0 
0.0116837 -0.0407576 0.0 
-0.0472886 0.0487631 0.0 
-0.0407861 0.0245683 0.0 
0.0188774 0.0686189 0.0 
-0.0214971 -0.0739168 0.0 
0.0241492 0.00972412 0.0 
-0.0906037 -0.435142 0.0 
2.84007e-20 -4.7052e-20 0.0 
-3.15704e-20 -1.42071e-20 0.0 
0.0014774 0.000449968 0.0 
0.0259777 0.053581 0.0 
0.00499324 -0.0033313 0.0 
-4.9003e-34 4.41484e-34 0.0 
0.0104407 0.00653833 0.0 
0.0272075 0.0531271 0.0 
-0.134348 0.0572007 0.0 
0.00909331 0.00644387 0.0 
0.00504339 -0.0211995 0.0 
-0.0660224 0.0481096 0.0 
-0.033205 0.0170863 0.0 
-0.0323976 -0.206033 0.0 
0.00838026 0.00348795 0.0 
0.0867882 0.0113143 0.0 
0.0832958 0.098725 0.0 
-0.0154043 0.0349256 0.0 
-0.0448889 0.127873 0.0 
-0.0030564 0.005391 0.0 
0.000604206 0.00796844 0.0 
-0.00306203 0.0350633 0.0 
-0.00959249 -0.0169956 0.0 
7.37285e-09 -1.06141e-08 0.0 
0.0134473 0.0046604 0.0 
0.0108402 0.0080919 0.0 
-0.0227607 0.01173 0.0 
-0.058511 0.057972 0.0 
0.0829891 -0.0309818 0.0 
0.0107421 0.0101138 0.0 
-0.119805 -0.254908 0.0 
-0.0520606 0.075145 0.0 
-0.00468535 0.0162354 0.0 
-0.035895 0.0437366 0.0 
-0.0581832 -0.024326 0.0 
-0.164486 0.077152 0.0 
0.041415 -0.0526927 0.0 
0.0141883 0.00522493 0.0 
0.0572119 0.0184743 0.0 
-0.130542 -0.0678733 0.0 
-0.0193244 -0.0140689 0.0 
0.0500673 0.0679565 0.0 
-0.156991 0.151571 0.0 
-0.147504 0.276684 0.0 
-0.0605802 -0.22468 0.0 
0.188328 0.0898519 0.0 
-0.0680515 -0.0158306 0.0 
-0.121053 0.0732417 0.0 
-0.00344288 0.00490801 0.0 
-0.00339276 0.00659036 0.0 
-0.103237 -0.0703875 0.0 
0.155753 -0.0601788 0.0 
-0.00548549 -0.00114296 0.0 
-0.0370788 -0.0287003 0.0 
-0.00330125 0.00661343 0.0 
-0.216079 0.262065 0.0 
0.0136542 0.00643449 0.0 
-0.00368196 0.00731674 0.0 
-0.0162355 0.150036 0.0 
1.58255e-06 1.62531e-06 0.0 
0.0214568 -0.0323831 0.0 
0.00291363 0.00166935 0.0 
-0.00370106 0.0079807 0.0 
-0.0982426 0.0639701 0.0 
0.0613117 0.0616916 0.0 
0.00898702 0.00280905 0.0 
-0.0329562 0.0511183 0.0 
0.00132416 -0.000134394 0.0 
-0.0159005 0.050594 0.0 
-0.0062507 -0.0189167 0.0 
-7.09154e-22 1.1809e-21 0.0 
0.00151308 0.0104046 0.0 
-0.00307913 0.00695502 0.0 
-0.00350003 -0.0102166 0.0 
-0.00744922 0.0222001 0.0 
-0.00299554 0.00571539 0.0 
0.00839142 0.00723089 0.0 
0.0250423 -0.0138785 0.0 
0.00407793 2.62721e-05 0.0 
0.0168926 0.023858 0.0 
0.0161821 -0.0189323 0.0 
-0.1152 -0.0228661 0.0 
0.00298291 0.0101033 0.0 
0.006568 0.00611632 0.0 
-1.29791e-33 1.53272e-33 0.0 
-0.0243724 -0.166739 0.0 
-0.0834417 0.0677919 0.0 
0.00390959 0.0110442 0.0 
-0.00356495 0.00741137 0.0 
0.0422476 0.0225338 0.0 
-0.00761516 0.00101451 0.0 
0.0055523 -0.0331791 0.0 
0.056744 0.0119209 0.0 
0.00257385 0.00996214 0.0 
-0.00128921 0.00127226 0.0 
-0.0196091 0.0123172 0.0 
-0.00544251 0.00525823 0.0 
0.0113743 -0.0815491 0.0 
-1.30847e-19 1.86883e-19 0.0 
0.00830536 0.00113351 0.0 
0.0195196 0.137998 0.0 
-0.00368461 0.00546545 0.0 
-0.0350214 0.00816108 0.0 
0.0169745 -0.0236439 0.0 
0.0620632 -0.0290945 0.0 
0.000483001 0.000662068 0.0 
1.91051e-06 6.92948e-07 0.0 
-0.0456976 -0.0407415 0.0 
1.93726e-19 -1.71559e-19 0.0 
-0.00477335 0.00284297 0.0 
0.00120305 0.0087175 0.0 
0.0015428 0.0696545 0.0 
-0.00281689 0.000517541 0.0 
-0.0753815 0.00865271 0.0 
-0.0838587 -0.0421158 0.0 
0.115652 0.0596902 0.0 
-0.0973071 -0.00475023 0.0 
-0.0616344 0.0466435 0.0 
-0.00971921 0.00448915 0.0 
-0.0289126 -0.0621265 0.0 
-2.77419e-34 3.15295e-34 0.0 
0.0197818 -0.00232067 0.0 
0.00500468 -0.000261636 0.0 
-0.00384608 0.00565852 0.0 
-0.0122396 0.0276818 0.0 
-0.0766903 -0.157961 0.0 
-0.0101256 0.0256727 0.0 
0.00828776 0.00402885 0.0 
0.174268 0.00292993 0.0 
-0.00632505 -0.187364 0.0 
-0.367197 0.228267 0.0 
-0.0272736 0.0381272 0.0 
-0.104706 -0.197198 0.0 
-0.0501414 -0.0634528 0.0 
-3.17643e-19 -1.25171e-19 0.0 
0.00830508 0.00447464 0.0 
-0.0404146 0.0156772 0.0 
-0.146337 0.235762 0.0 
-0.0175146 0.0143301 0.0 
0.0388485 -0.247499 0.0 
-0.0666928 0.0287021 0.0 
-0.07556 0.109357 0.0 
-0.00276485 0.00184033 0.0 
-0.0767065 0.0369892 0.0 
0.0127399 -0.00209971 0.0 
-0.0196715 0.0578693 0.0 
0.0252321 -0.0882014 0.0 
-0.00303758 0.00758317 0.0 
0.00557436 0.00709023 0.0 
-0.093124 -0.161026 0.0 
-0.0038465 0.00482667 0.0 
0.00888989 0.0126279 0.0 
-0.00261903 0.00774667 0.0 
0.0256063 -0.00846042 0.0 
-0.0140623 -0.0426891 0.0 
-0.00146432 0.00131389 0.0 
-0.00327141 0.00283974 0.0 
0.0918296 -0.111238 0.0 
0.00650326 0.000605016 0.0 
-0.227923 0.26092 0.0 
0.0180962 0.0167952 0.0 
-0.0579427 0.0379252 0.0 
-0.00406687 0.00501099 0.0 
-0.0203628 0.00263451 0.0 
-0.00974573 0.00908961 0.0 
-0.0239124 0.0239085 0.0 
0.0160841 -0.00554797 0.0 
-0.013134 0.0351916 0.0 
-0.000797227 -0.0324224 0.0 
-0.00394436 0.00446077 0.0 
-0.237288 0.253927 0.0 
-0.00338808 0.00573132 0.0 
0.0854771 0.00734044 0.0 
-0.00377826 0.00463904 0.0 
0.00665804 -0.0444858 0.0 
-0.140007 0.0408357 0.0 
0.00615356 0.00758448 0.0 
2.73103e-19 -2.11272e-19 0.0 
-0.00211707 0.00302087 0.0 
-1.46325e-33 1.50915e-33 0.0 
0.00707433 0.00813413 0.0 
-0.000728095 0.00188178 0.0 
-0.181696 0.0177921 0.0 
-0.00443882 0.00467779 0.0 
0.0576882 -0.0911534 0.0 
0.020283 -0.00688231 0.0 
0.0187807 -0.0327669 0.0 
0.0378371 -0.0207112 0.0 
-0.00318288 0.00498534 0.0 
0.0239514 0.147214 0.0 
0.0735423 -0.0246951 0.0 
-0.00393221 0.00513911 0.0 
0.00649986 0.00455079 0.0 
-0.000122752 0.00732153 0.0 
0.00268081 0.0168262 0.0 
0.00779484 -0.000925362 0.0 
-0.0280149 -0.00200515 0.0 
-0.00398224 0.00378809 0.0 
-0.129444 -0.251001 0.0 
0.0813194 -0.105402 0.0 
-0.073184 0.13241 0.0 
0.0141612 0.00418978 0.0 
9.00301e-20 -7.00334e-20 0.0 
0.0550173 -0.0672003 0.0 
0.016211 0.156472 0.0 
0.00055171 -0.000794254 0.0 
-3.40608e-05 5.0113e-05 0.0 
-0.00751965 0.00732984 0.0 
-0.0855803 0.0281446 0.0 
-0.00349626 0.187178 0.0 
0.00909527 0.00444914 0.0 
0.0874184 -0.0125742 0.0 
0.0856745 -0.0318506 0.0 
-0.0320813 0.167218 0.0 
-0.0217644 -0.0633339 0.0 
-0.00478562 0.149589 0.0 
0.0233095 -0.109937 0.0 
-0.149905 0.273865 0.0 
0.0318464 -0.0126032 0.0 
0.00964998 0.00612233 0.0 
0.0440483 -0.0294155 0.0 
-0.0670063 0.0417264 0.0 
0.00831371 0.00325865 0.0 
0.0662454 0.0239534 0.0 
0.0607735 -0.0451413 0.0 
-2.80852e-35 2.4022e-35 0.0 
-0.00250714 0.00773034 0.0 
0.0650684 -0.0310692 0.0 
-0.036374 -0.0399171 0.0 
0.00902205 0.0114605 0.0 
-0.122664 -0.0728325 0.0 
0.00884764 0.00133968 0.0 
0.199748 -0.0802483 0.0 
0.0150257 -0.0119797 0.0 
0.00129933 0.106729 0.0 
0.00982252 0.00617389 0.0 
0.00990008 -0.0220205 0.0 
-0.0991636 0.0563438 0.0 
-0.0017595 0.0062596 0.0 
0.0339812 -0.014724 0.0 
-0.0168676 -0.015824 0.0 
0.000425924 0.000462034 0.0 
-0.0214361 -0.0530564 0.0 
-0.0655551 -0.015383 0.0 
0.00512339 -0.000432395 0.0 
-2.01143e-20 -5.1441e-20 0.0 
0.101781 -0.115165 0.0 
0.00883496 0.00593936 0.0 
4.3899e-06 4.51394e-05 0.0 
0.0727349 -0.0467807 0.0 
0.00878346 0.000764054 0.0 
0.0478813 -0.0177573 0.0 
0.00528734 0.00857387 0.0 
0.00251241 -6.99707e-05 0.0 
-0.000270424 0.000327539 0.0 
0.0454213 0.034008 0.0 
-0.00942928 0.00582878 0.0 
-0.0327127 0.20471 0.0 
0.0764481 -0.0317188 0.0 
-0.00258104 0.00613734 0.0 
0.0505338 0.0137907 0.0 
0.00548381 0.138863 0.0 
0.0681575 -0.0307447 0.0 
-0.0371083 0.0080281 0.0 
-0.00292002 0.00779099 0.0 
0.0747988 0.0418043 0.0 
-0.0705886 -0.173497 0.0 
0.141892 -0.563851 0.0 
0.0435661 0.0256992 0.0 
-0.282025 0.240655 0.0 
-0.100981 0.263792 0.0 
-0.208052 0.165769 0.0 
-9.26868e-36 9.36732e-36 0.0 
0.00874721 0.00334774 0.0 
0.0391993 0.0403174 0.0 
0.067094 0.0106974 0.0 
0.00791039 0.000769946 0.0 
0.00378407 0.0112758 0.0 
-0.0490937 0.0233189 0.0 