<VTKFile type="UnstructuredGrid" version="0.1" byte_order="LittleEndian">
  <UnstructuredGrid>
    <Piece NumberOfPoints="19179" NumberOfCells="38283">
      <Points>
        <DataArray type = "Float64" NumberOfComponents="3" format="ascii">
4.00563 3.99511 0.0 
4.00142 4.00024 0.0 
4.01441 3.97315 0.0 
4.01221 3.99617 0.0 
3.99497 4.00251 0.0 
4.00383 3.99954 0.0 
4.00344 3.99515 0.0 
3.99887 3.9945 0.0 
4.5029 3.43754 0.0 
3.99248 4.02113 0.0 
4.00583 4.00674 0.0 
4.01484 4.00688 0.0 
4.00281 4.00807 0.0 
4.49628 3.42127 0.0 
4.00401 4.0049 0.0 
4.00709 3.98991 0.0 
4.00272 3.99831 0.0 
4.50447 3.48805 0.0 
4.00777 3.99096 0.0 
4.01795 3.98461 0.0 
3.99966 3.99859 0.0 
3.98948 4.02579 0.0 
4.00919 3.97728 0.0 
4.00312 3.99959 0.0 
4.02246 4.01048 0.0 
3.98996 3.9976 0.0 
3.99832 3.99693 0.0 
4.00612 3.99867 0.0 
4.01712 3.99356 0.0 
3.99812 3.99471 0.0 
3.92713 4.2932 0.0 
4.00083 4.0009 0.0 
4.00415 3.99485 0.0 
4.02069 3.99179 0.0 
4.00825 3.9952 0.0 
4.0032 3.99667 0.0 
3.9848 4.02668 0.0 
4.00401 4.00128 0.0 
3.99892 4.00002 0.0 
4.51308 3.46205 0.0 
4.02686 3.95843 0.0 
3.99221 3.99468 0.0 
4.00471 4.0035 0.0 
4.02071 4.01059 0.0 
3.98334 3.99794 0.0 
4.0344 4.01105 0.0 
4.50986 3.4118 0.0 
4.0131 3.99251 0.0 
3.99501 4.00685 0.0 
3.99097 4.02586 0.0 
4.02886 4.01061 0.0 
4.01563 3.9881 0.0 
4.00581 3.98959 0.0 
4.0023 4.00384 0.0 
4.00001 3.99593 0.0 
3.99865 3.99542 0.0 
3.99683 3.99553 0.0 
4.0016 4.00097 0.0 
4.01136 3.99374 0.0 
4.0192 3.99483 0.0 
4.00323 4.00524 0.0 
4.01328 3.9821 0.0 
4.0921 4.0265 0.0 
3.99906 3.99921 0.0 
4.0366 3.94555 0.0 
4.52487 3.4023 0.0 
3.99404 4.00346 0.0 
4.00008 4.00537 0.0 
4.00333 3.99801 0.0 
4.00421 4.00576 0.0 
4.74476 3.50476 0.0 
4.04477 4.01462 0.0 
3.99699 3.99681 0.0 
4.02497 3.96519 0.0 
4.00418 3.99891 0.0 
4.02379 3.98023 0.0 
3.99304 4.01575 0.0 
4.052 3.9684 0.0 
4.00423 3.99722 0.0 
3.97841 4.00401 0.0 
4.05318 3.99487 0.0 
4.01812 3.99597 0.0 
4.02188 3.96664 0.0 
4.01177 3.99203 0.0 
4.03023 3.95707 0.0 
4.05662 3.9954 0.0 
4.00493 3.99702 0.0 
4.02322 3.99639 0.0 
3.95078 4.20837 0.0 
4.01022 3.99395 0.0 
4.03914 3.99407 0.0 
4.00839 3.99424 0.0 
4.00227 3.99969 0.0 
4.02827 3.96327 0.0 
4.05701 3.98947 0.0 
4.01722 3.98268 0.0 
3.93554 4.24955 0.0 
4.01921 4.00946 0.0 
4.04416 3.9955 0.0 
3.95821 4.00488 0.0 
3.99791 3.99543 0.0 
4.00706 3.99731 0.0 
3.97898 3.99146 0.0 
4.01436 3.99342 0.0 
4.03702 4.01109 0.0 
4.00128 4.00149 0.0 
4.00647 3.99232 0.0 
4.6196 3.45248 0.0 
4.00505 3.99855 0.0 
4.5276 3.5251 0.0 
3.94914 4.19509 0.0 
4.00309 4.00436 0.0 
4.00803 4.00629 0.0 
4.11633 3.92794 0.0 
3.98682 4.02445 0.0 
3.99986 4.00073 0.0 
4.0179 3.99061 0.0 
4.10801 3.9846 0.0 
4.0091 3.99435 0.0 
4.59282 3.51727 0.0 
3.9871 4.01897 0.0 
4.04311 3.96184 0.0 
4.59287 3.63548 0.0 
4.6005 3.46212 0.0 
4.01131 4.00695 0.0 
4.53683 3.48972 0.0 
4.01737 3.99662 0.0 
4.04675 3.99597 0.0 
4.25539 3.87102 0.0 
3.99499 4.01124 0.0 
3.95091 4.00461 0.0 
3.97113 3.98879 0.0 
4.00243 4.00063 0.0 
4.004 4.02747 0.0 
3.9987 3.99121 0.0 
4.00286 3.99479 0.0 
4.00586 3.99303 0.0 
3.99755 3.99653 0.0 
3.93373 4.2853 0.0 
4.01891 3.97431 0.0 
4.0331 3.96396 0.0 
4.0116 3.99503 0.0 
4.00155 4.00863 0.0 
4.01327 4.0081 0.0 
4.53411 3.41226 0.0 
3.93959 3.97977 0.0 
4.02072 3.98618 0.0 
4.00461 3.99777 0.0 
4.00847 3.99199 0.0 
4.71339 3.56856 0.0 
4.03385 3.95673 0.0 
4.02397 3.9704 0.0 
4.0343 3.9438 0.0 
4.73058 3.5419 0.0 
4.00457 3.9916 0.0 
4.00521 3.99776 0.0 
4.02589 3.99532 0.0 
4.00702 3.99224 0.0 
4.00098 3.99773 0.0 
4.01783 4.00965 0.0 
3.99846 3.99362 0.0 
3.99407 4.01391 0.0 
4.03741 3.99551 0.0 
4.00776 3.98978 0.0 
4.00221 4.00292 0.0 
4.01059 3.99797 0.0 
4.03799 3.9624 0.0 
3.96668 4.00545 0.0 
4.03847 4.01577 0.0 
4.08677 3.98209 0.0 
4.01034 3.98006 0.0 
4.00517 3.99519 0.0 
3.99151 3.99496 0.0 
4.00376 3.99271 0.0 
4.00997 3.99712 0.0 
4.0214 3.97942 0.0 
4.01866 3.96728 0.0 
4.88641 3.68194 0.0 
4.00291 4.00364 0.0 
3.99949 3.99501 0.0 
4.0014 4.00217 0.0 
4.01687 3.99766 0.0 
4.76008 3.61967 0.0 
4.00619 3.99445 0.0 
3.95593 4.17685 0.0 
4.02009 3.99649 0.0 
3.98612 3.99275 0.0 
4.02772 3.97648 0.0 
4.00739 3.98565 0.0 
4.01426 3.99668 0.0 
4.55829 3.62889 0.0 
4.00996 3.97501 0.0 
4.00189 3.99478 0.0 
3.98642 4.0323 0.0 
4.0046 4.00419 0.0 
3.98325 4.04701 0.0 
4.02595 4.00776 0.0 
3.99529 4.00495 0.0 
3.98518 4.04254 0.0 
4.0184 3.96536 0.0 
4.05035 4.01889 0.0 
4.0491 3.99439 0.0 
4.00372 4.00035 0.0 
4.02832 3.96694 0.0 
3.97212 3.99158 0.0 
4.48 3.40836 0.0 
4.0034 4.00634 0.0 
4.00179 4.00968 0.0 
4.0029 4.02077 0.0 
4.6862 3.53644 0.0 
4.00129 4.00765 0.0 
3.99747 3.98918 0.0 
3.94657 4.19379 0.0 
4.02828 4.01174 0.0 
4.02648 4.01192 0.0 
4.05856 3.98535 0.0 
4.00171 3.99685 0.0 
4.04007 3.95385 0.0 
4.78348 3.56086 0.0 
4.14359 3.97383 0.0 
3.99415 4.00247 0.0 
4.03285 3.9952 0.0 
4.02409 3.97352 0.0 
4.0069 3.99899 0.0 
4.01322 3.99531 0.0 
4.72188 3.60587 0.0 
3.99754 3.99422 0.0 
4.74205 3.58422 0.0 
4.09144 3.95607 0.0 
3.96378 4.0047 0.0 
4.01471 3.99562 0.0 
4.01242 3.98541 0.0 
3.98782 4.03596 0.0 
4.01419 3.99957 0.0 
3.96291 4.00411 0.0 
4.02035 3.98356 0.0 
4.0022 4.00909 0.0 
4.01655 3.97186 0.0 
4.68355 3.4893 0.0 
3.98589 4.00374 0.0 
4.14233 4.04025 0.0 
4.00328 4.00324 0.0 
4.06783 3.96542 0.0 
4.00698 3.9911 0.0 
4.05171 3.99329 0.0 
4.02116 3.96113 0.0 
3.95254 4.19513 0.0 
3.97996 3.99234 0.0 
4.01482 3.96793 0.0 
3.97466 3.98397 0.0 
4.02074 4.00924 0.0 
4.83979 3.65575 0.0 
4.66329 3.46798 0.0 
4.00455 4.00468 0.0 
4.00295 4.00902 0.0 
4.0493 3.99118 0.0 
4.01675 3.967 0.0 
4.01792 3.98732 0.0 
4.01561 3.98135 0.0 
3.9977 3.99722 0.0 
3.97095 3.9963 0.0 
3.93346 3.97645 0.0 
4.00535 4.00553 0.0 
4.03154 3.98929 0.0 
4.07665 3.98502 0.0 
3.97499 4.08513 0.0 
4.03915 3.9719 0.0 
4.64289 3.50668 0.0 
3.99464 4.01035 0.0 
4.00628 3.98865 0.0 
3.97776 4.06314 0.0 
4.07045 3.99333 0.0 
4.00109 4.00389 0.0 
4.01038 3.98113 0.0 
4.01559 3.99682 0.0 
3.97755 4.23281 0.0 
4.00459 4.00677 0.0 
4.03791 3.98885 0.0 
4.00855 3.97661 0.0 
3.95289 4.1707 0.0 
4.01492 4.00747 0.0 
4.00654 3.9907 0.0 
4.19335 4.05141 0.0 
4.0334 4.01177 0.0 
4.08707 4.02683 0.0 
3.94443 4.24795 0.0 
3.99609 4.00632 0.0 
4.0126 4.00608 0.0 
4.00568 3.99654 0.0 
4.06049 3.9964 0.0 
4.0327 3.9937 0.0 
4.01476 3.95984 0.0 
4.0119 3.97577 0.0 
4.71084 3.64223 0.0 
3.87127 3.97258 0.0 
4.00923 3.97186 0.0 
4.66397 3.5891 0.0 
3.99067 4.00269 0.0 
4.01199 3.97042 0.0 
3.99313 3.99504 0.0 
3.99879 3.99632 0.0 
4.04816 3.97658 0.0 
4.00805 3.99768 0.0 
3.99192 3.99585 0.0 
4.01847 4.00809 0.0 
4.00549 4.00483 0.0 
3.9825 3.99528 0.0 
4.01307 3.97605 0.0 
4.00299 4.0164 0.0 
4.68736 3.67129 0.0 
4.81338 3.62786 0.0 
4.01308 3.99711 0.0 
4.01116 3.99996 0.0 
4.03313 3.98515 0.0 
3.99068 4.00599 0.0 
3.96277 3.98798 0.0 
3.98366 3.99176 0.0 
4.04315 4.01264 0.0 
4.01485 3.96955 0.0 
3.95991 4.1304 0.0 
4.03246 3.97826 0.0 
3.99651 3.98243 0.0 
4.7551 3.56604 0.0 
4.01884 3.99718 0.0 
4.0366 3.9864 0.0 
3.97282 4.07999 0.0 
4.00805 3.98549 0.0 
4.00598 3.99557 0.0 
4.00027 3.99915 0.0 
4.61212 3.60115 0.0 
3.95263 4.17986 0.0 
4.00747 3.99517 0.0 
4.01067 3.97126 0.0 
4.63743 3.64493 0.0 
3.99622 3.99597 0.0 
4.01896 3.99788 0.0 
4.03178 4.0143 0.0 
4.01383 3.9905 0.0 
4.00755 3.99341 0.0 
4.84406 3.69372 0.0 
4.00606 3.99717 0.0 
4.01136 3.96558 0.0 
4.68903 3.57556 0.0 
4.02873 3.95099 0.0 
4.81309 3.6577 0.0 
4.01103 3.97797 0.0 
4.01569 3.99032 0.0 
4.0517 4.01713 0.0 
3.9917 4.01969 0.0 
3.9981 3.99608 0.0 
4.00203 3.99778 0.0 
3.95046 4.22942 0.0 
4.7512 3.53226 0.0 
4.01424 4.00598 0.0 
4.00674 3.98642 0.0 
3.99126 3.99426 0.0 
3.96097 4.14066 0.0 
4.00003 3.99791 0.0 
4.0015 4.01866 0.0 
4.07015 3.94201 0.0 
4.0065 3.99621 0.0 
4.0008 3.99963 0.0 
4.00771 4.00545 0.0 
3.95302 4.21084 0.0 
4.52299 3.42689 0.0 
4.02432 3.99418 0.0 
3.97551 3.99131 0.0 
4.65714 3.54446 0.0 
4.0317 4.01341 0.0 
4.00667 4.00408 0.0 
3.99951 3.99738 0.0 
3.97265 4.10788 0.0 
4.00831 3.98725 0.0 
3.9497 4.00366 0.0 
4.01319 3.98928 0.0 
3.99792 3.99141 0.0 
4.00143 3.99833 0.0 
3.96773 4.13066 0.0 
4.0002 3.99991 0.0 
3.98262 4.03526 0.0 
3.98965 4.00013 0.0 
3.99093 4.02051 0.0 
4.00394 3.986 0.0 
4.00443 4.00239 0.0 
4.00668 3.99501 0.0 
4.00149 3.98877 0.0 
3.99686 3.99443 0.0 
4.01815 3.96012 0.0 
3.99599 4.00399 0.0 
4.0069 3.99344 0.0 
4.04107 3.91315 0.0 
4.00545 3.99716 0.0 
4.001 3.99875 0.0 
4.00992 3.97959 0.0 
4.78112 3.51675 0.0 
3.99022 4.03094 0.0 
4.00239 4.01766 0.0 
3.92382 4.3242 0.0 
4.67262 3.63196 0.0 
4.00454 3.99961 0.0 
4.02904 4.00722 0.0 
4.00025 4.01703 0.0 
4.00996 3.99309 0.0 
3.99666 4.00405 0.0 
4.55297 3.43799 0.0 
3.99678 3.99365 0.0 
3.98362 4.03115 0.0 
4.00117 3.99212 0.0 
3.99894 3.99701 0.0 
4.00459 3.98657 0.0 
4.01603 3.96453 0.0 
3.99732 3.99506 0.0 
3.9734 4.27089 0.0 
4.00697 3.98461 0.0 
4.00766 3.99224 0.0 
4.00581 3.98032 0.0 
4.00457 3.99649 0.0 
4.0461 3.99485 0.0 
4.01853 3.9706 0.0 
3.99657 3.99493 0.0 
4.5424 3.45436 0.0 
4.83362 3.71389 0.0 
4.00067 4.00449 0.0 
4.05697 3.98764 0.0 
4.03018 3.99147 0.0 
4.07346 3.98053 0.0 
4.00884 3.97938 0.0 
4.00968 4.00591 0.0 
3.99492 4.00596 0.0 
4.04351 3.91801 0.0 
4.57794 3.46944 0.0 
4.00965 3.98306 0.0 
3.99824 3.98324 0.0 
4.11695 3.98995 0.0 
4.63111 3.48228 0.0 
3.99757 3.99235 0.0 
4.80806 3.57398 0.0 
4.88704 3.65227 0.0 
4.63246 3.56938 0.0 
4.00836 3.97587 0.0 
3.99607 3.99421 0.0 
4.00005 3.98785 0.0 
3.99105 4.01689 0.0 
3.98005 4.05873 0.0 
3.99864 3.98819 0.0 
4.04419 3.99645 0.0 
4.57353 3.59425 0.0 
3.99152 4.02312 0.0 
4.02433 3.93897 0.0 
3.93976 4.28915 0.0 
4.00855 3.99295 0.0 
4.00242 4.00468 0.0 
4.00845 3.96979 0.0 
4.01237 3.96824 0.0 
4.59263 3.55585 0.0 
3.82419 3.97298 0.0 
4.02017 3.977 0.0 
4.0052 3.9961 0.0 
3.99614 3.99339 0.0 
3.98847 4.02259 0.0 
4.71486 3.50057 0.0 
3.99987 3.99087 0.0 
3.87393 3.98158 0.0 
4.02596 3.98203 0.0 
4.02086 3.965 0.0 
3.98428 3.99095 0.0 
3.97871 4.0818 0.0 
3.98831 4.0292 0.0 
4.01188 3.97262 0.0 
3.96181 4.00613 0.0 
[...]
<PointData>
  <DataArray type = "Float64" Name="Vitesse" NumberOfComponents="3" format="ascii">
0.000987331 0.000262178 0.0 
7.65399e-07 1.59488e-07 0.0 
0.000299477 0.00081276 0.0 
0.00031568 0.00287094 0.0 
0.0219463 -0.0190767 0.0 
0.000148042 3.1479e-05 0.0 
2.63938e-05 3.29963e-06 0.0 
-2.66533e-05 -0.000358171 0.0 
-0.00224269 0.00322964 0.0 
0.00799581 -0.000804001 0.0 
0.0128796 0.00849521 0.0 
0.00187958 0.00241677 0.0 
0.0102016 0.00696649 0.0 
-0.00212718 0.00301631 0.0 
0.0127763 0.00859333 0.0 
0.000308018 0.000899333 0.0 
0.00529429 -0.000945165 0.0 
-0.00231659 0.00441708 0.0 
0.00031242 0.00110136 0.0 
-0.000251333 0.0020718 0.0 
4.1808e-18 -6.03582e-18 0.0 
0.0130286 -0.000735636 0.0 
0.000675388 0.00035286 0.0 
0.00103402 0.000224466 0.0 
0.00395378 0.00320633 0.0 
-1.29081e-44 5.19697e-44 0.0 
-0.00287299 -0.00820247 0.0 
2.17488e-05 5.76135e-05 0.0 
-9.59651e-05 0.00237241 0.0 
-0.00135674 -0.00440707 0.0 
0.0385978 0.0166501 0.0 
8.33643e-18 4.841e-18 0.0 
0.000757228 6.1292e-05 0.0 
-0.000310996 0.00243515 0.0 
0.000663312 0.00172742 0.0 
8.94807e-05 -6.37387e-05 0.0 
0.0165868 -0.00461271 0.0 
5.04948e-07 1.14742e-07 0.0 
0.00281306 -0.00188291 0.0 
-0.00246485 0.00358376 0.0 
3.0467e-05 0.00140878 0.0 
-0.00149907 -0.00524836 0.0 
6.61822e-05 5.59776e-05 0.0 
0.00485624 0.00377405 0.0 
-2.0906e-40 4.22826e-40 0.0 
0.000730522 0.00271938 0.0 
-0.00231039 0.0026659 0.0 
-0.000180234 0.00227571 0.0 
0.010417 -0.00676423 0.0 
0.011442 0.000973351 0.0 
0.00183295 0.00217029 0.0 
-0.000190855 0.00214283 0.0 
0.000312521 0.000510288 0.0 
0.0155379 0.0117343 0.0 
-6.30232e-07 -2.64427e-06 0.0 
-0.000339084 -0.00405358 0.0 
-0.00163044 -0.00600474 0.0 
1.95215e-19 1.22498e-19 0.0 
0.000214835 0.00238604 0.0 
-2.68234e-05 0.00264325 0.0 
0.0134426 0.0101075 0.0 
0.000200505 0.00138761 0.0 
0.000674045 0.00372352 0.0 
0.000134018 -8.97043e-05 0.0 
9.02333e-05 0.00147119 0.0 
-0.00235133 0.002414 0.0 
0.020902 -0.0197915 0.0 
1.11133e-18 6.87294e-19 0.0 
0.00370117 -0.0015911 0.0 
0.0139565 0.00949777 0.0 
-0.00779325 -0.00235186 0.0 
0.00153468 0.00353513 0.0 
-0.000245174 -0.000805643 0.0 
-9.29148e-05 0.00152347 0.0 
0.000774238 0.00012464 0.0 
-0.000448427 0.00214572 0.0 
0.00927128 -0.00110775 0.0 
-0.000875665 0.00250719 0.0 
0.00189186 -0.00100204 0.0 
0.00299037 -0.00813809 0.0 
3.09345e-05 0.000621045 0.0 
0.00044728 0.00245248 0.0 
-1.17014e-05 0.00134944 0.0 
1.5019e-05 0.0021541 0.0 
-4.00299e-05 0.00154978 0.0 
1.94336e-06 0.000110095 0.0 
0.00176045 -0.000272045 0.0 
7.9164e-07 0.000445484 0.0 
0.0285159 0.0044252 0.0 
0.000378911 0.00205892 0.0 
-0.000107671 0.00277057 0.0 
0.000590583 0.00157212 0.0 
0.000247599 4.80505e-05 0.0 
-0.000158284 0.0016561 0.0 
-9.11572e-05 0.00254678 0.0 
-0.000141483 0.00188557 0.0 
0.0306197 0.00609125 0.0 
0.00409962 0.0037525 0.0 
1.33973e-05 0.00018169 0.0 
0.000118442 -0.000302476 0.0 
-0.00217239 -0.00595495 0.0 
0.00130792 0.00146872 0.0 
0.000663293 -0.00803817 0.0 
-0.000260671 0.00228393 0.0 
0.000786962 0.00318775 0.0 
2.73831e-18 4.40997e-18 0.0 
0.000468359 0.00060092 0.0 
-0.00403276 0.0012054 0.0 
0.00152071 0.000962341 0.0 
-0.00326194 0.00509726 0.0 
0.024805 0.00477482 0.0 
0.0136662 0.00946925 0.0 
0.00829713 0.00551091 0.0 
-0.000775034 0.00359707 0.0 
0.0143525 -0.00390024 0.0 
1.08248e-19 6.05876e-20 0.0 
-0.000274352 0.00235668 0.0 
-0.00118974 0.003684 0.0 
0.000487031 0.00177989 0.0 
-0.00546651 0.00336665 0.0 
0.0134813 -0.00872506 0.0 
-0.0005702 0.00215679 0.0 
-0.00742003 0.00928005 0.0 
-0.00425269 0.00168951 0.0 
0.00557975 0.00430171 0.0 
-0.00321966 0.00386928 0.0 
0.000130146 0.00217498 0.0 
2.87992e-05 0.00020455 0.0 
0.000713254 0.00702886 0.0 
0.000610459 -3.99865e-05 0.0 
0.000726783 -0.00358736 0.0 
0.000259227 -0.00665575 0.0 
2.36244e-21 7.74478e-21 0.0 
0.00587878 -0.000142069 0.0 
7.05074e-06 -3.40434e-05 0.0 
6.59998e-08 7.30754e-09 0.0 
0.000670044 0.000513748 0.0 
-0.00293545 -0.00525787 0.0 
0.0357195 0.0142742 0.0 
-5.54188e-06 0.00145984 0.0 
-0.000345433 0.00190837 0.0 
0.000246655 0.00276846 0.0 
0.00027594 0.000117912 0.0 
0.00585766 0.00415841 0.0 
-0.00260793 0.00241759 0.0 
0.00235893 -0.00807383 0.0 
-0.000431946 0.00228083 0.0 
0.00247295 -0.000440882 0.0 
0.000353158 0.00135753 0.0 
-0.0132796 0.000730668 0.0 
-0.00014665 0.00170059 0.0 
-0.000184441 0.0016729 0.0 
0.000195078 0.00133398 0.0 
-0.0116647 -0.00153803 0.0 
0.000130296 6.72068e-05 0.0 
0.00182585 0.000366376 0.0 
6.309e-05 0.00218542 0.0 
0.000439498 0.000826176 0.0 
-5.9928e-62 -3.34568e-61 0.0 
0.00493085 0.00416562 0.0 
-0.00015711 -0.00168629 0.0 
0.00721493 -9.5332e-06 0.0 
-7.56262e-06 0.000292182 0.0 
0.000321833 0.00109528 0.0 
0.000777944 0.000570099 0.0 
3.06099e-05 0.000406334 0.0 
-0.000454734 0.00203059 0.0 
0.00183426 -0.00592497 0.0 
0.00259385 0.00383966 0.0 
-0.000925123 0.00335117 0.0 
0.000471777 0.000749737 0.0 
0.00097024 5.45564e-05 0.0 
-0.000533218 -0.00388815 0.0 
4.47668e-05 1.29705e-05 0.0 
0.000239907 0.00264435 0.0 
-0.000309555 0.00197985 0.0 
0.000110233 0.00108282 0.0 
-0.0564499 0.0183424 0.0 
0.0101056 0.00737 0.0 
-1.39606e-06 -1.85067e-05 0.0 
0.00982822 0.0125756 0.0 
6.94529e-06 2.64556e-05 0.0 
-0.0215406 0.00194957 0.0 
0.00083019 0.000583641 0.0 
0.0190545 0.00332875 0.0 
0.000763578 0.00317421 0.0 
-3.44034e-05 -0.00840688 0.0 
-0.000531661 0.00214565 0.0 
0.000791075 0.000636693 0.0 
7.98945e-05 0.00245263 0.0 
-0.00546009 0.00906577 0.0 
0.000679039 0.000284365 0.0 
7.82686e-43 6.89036e-42 0.0 
0.0187435 -0.00381353 0.0 
0.00681224 0.00510517 0.0 
0.0198677 -0.000355935 0.0 
9.04465e-05 0.000331435 0.0 
0.0151835 -0.012552 0.0 
0.0168905 0.00101476 0.0 
0.000153937 0.000988321 0.0 
0.00224798 0.00349707 0.0 
0.000388558 0.0031001 0.0 
0.000150944 3.41953e-05 0.0 
-0.00027238 0.00179356 0.0 
4.44634e-64 -1.72806e-63 0.0 
-0.00178484 0.00308579 0.0 
0.013618 0.00894621 0.0 
0.000620835 7.71815e-05 0.0 
0.000817882 -1.89644e-05 0.0 
-0.00972143 0.000685369 0.0 
0.00243256 9.049e-05 0.0 
0.000322245 -0.00166489 0.0 
0.0244902 0.00471812 0.0 
0.00284603 0.00259803 0.0 
0.00363967 0.0029373 0.0 
-0.000463279 0.00272071 0.0 
2.66552e-81 1.95118e-81 0.0 
-0.000251251 0.00184871 0.0 
-0.015547 -0.00437247 0.0 
-0.000945271 0.0037211 0.0 
0.0178351 -0.015776 0.0 
0.000549734 0.0038698 0.0 
-0.000278812 0.00183631 0.0 
8.42173e-06 3.53878e-05 0.0 
-0.00018017 0.0028599 0.0 
-0.0165982 0.00300012 0.0 
-0.00136633 -0.00592617 0.0 
-0.0164421 -8.01085e-05 0.0 
-0.00120411 0.0031976 0.0 
0.000742894 -0.00475004 0.0 
-0.00016195 0.0018734 0.0 
0.000171191 0.00157817 0.0 
0.0154593 -0.00113243 0.0 
3.72011e-09 1.39851e-08 0.0 
2.71588e-05 -0.000482618 0.0 
-0.000361526 0.0021456 0.0 
0.00286784 0.0011259 0.0 
0.00017032 0.00104358 0.0 
-0.00660439 -0.000294072 0.0 
0.00491088 -0.00725339 0.0 
-0.00052811 0.00372306 0.0 
0.00099348 0.000771385 0.0 
-0.00104389 0.00284649 0.0 
0.000296172 0.000831778 0.0 
7.10523e-05 0.00251709 0.0 
0.000155826 0.0010804 0.0 
0.0248875 0.00474034 0.0 
0.000681721 -0.00697876 0.0 
0.000205576 0.00070326 0.0 
-0.00123831 -0.00792058 0.0 
0.00323426 0.0032375 0.0 
-0.0396481 0.00516987 0.0 
-0.00511894 0.000211101 0.0 
0.0102257 0.0067083 0.0 
0.0103524 0.00451264 0.0 
-8.87157e-05 0.00242235 0.0 
0.000180079 0.000885948 0.0 
-0.000309108 0.00223546 0.0 
2.61117e-05 0.00162166 0.0 
5.47022e-19 -1.72806e-18 0.0 
-9.19924e-44 2.67889e-43 0.0 
0.00290947 -0.0105661 0.0 
0.0115819 0.00702959 0.0 
-0.00044517 0.00284277 0.0 
-0.000735544 0.00325044 0.0 
0.0197315 -0.00636267 0.0 
-0.00076012 0.00229788 0.0 
-0.00681193 0.00145051 0.0 
0.00776039 8.49571e-05 0.0 
0.000510121 0.000637439 0.0 
0.0259754 0.0032477 0.0 
-6.67027e-05 0.00112157 0.0 
0.00680625 0.00371347 0.0 
0.00044325 0.000831109 0.0 
5.53134e-05 0.00201928 0.0 
-1.27306e-38 -2.83999e-39 0.0 
0.0141167 0.00973817 0.0 
-0.000649156 0.00235403 0.0 
0.000900677 0.000189215 0.0 
0.0201488 0.000961818 0.0 
0.00294754 0.00292836 0.0 
0.000274151 0.000690838 0.0 
-0.000294612 0.0042363 0.0 
0.00109014 0.00251534 0.0 
0.000822546 0.00380357 0.0 
0.0280617 0.00398341 0.0 
0.000453739 -0.000222663 0.0 
0.00187434 0.00262558 0.0 
0.00146513 0.000284334 0.0 
5.65213e-05 0.000208938 0.0 
-0.000151039 0.0033512 0.0 
0.000427392 0.000358027 0.0 
0.000506898 0.0006498 0.0 
-0.0172693 0.00722502 0.0 
0.002462 -0.0124595 0.0 
0.000528096 0.00010311 0.0 
-0.0112078 0.00453061 0.0 
0.00601694 -0.00906714 0.0 
0.000301372 0.000341815 0.0 
-0.00141734 -0.00530248 0.0 
-0.00156355 -0.00633432 0.0 
-0.000894265 0.00248729 0.0 
0.000758249 0.00415827 0.0 
-7.03287e-07 -1.00368e-05 0.0 
0.00242486 0.0033952 0.0 
0.00854785 0.00484771 0.0 
1.20009e-62 -4.94218e-62 0.0 
0.000399636 0.000848979 0.0 
0.0132935 -0.000220615 0.0 
-0.0152393 0.0110396 0.0 
-0.0301889 -0.000357944 0.0 
0.000345127 0.00427682 0.0 
-1.35791e-20 2.34682e-19 0.0 
-0.000697358 0.00259501 0.0 
0.0189786 -0.015733 0.0 
-0.000496937 -0.00893133 0.0 
-0.00102828 -0.00627635 0.0 
0.000837598 0.00330968 0.0 
0.000201105 0.000733292 0.0 
0.0262662 -0.00103337 0.0 
-0.000714821 0.00234729 0.0 
0.00060211 -0.00131235 0.0 
-0.0152846 -0.00215401 0.0 
0.000146594 0.000576446 0.0 
-0.000788702 0.00244298 0.0 
0.0232883 -0.0067636 0.0 
0.000705333 0.000763086 0.0 
0.00114675 0.000438695 0.0 
0.000924521 -0.000317096 0.0 
-0.00807213 0.00699543 0.0 
0.0202931 0.00332587 0.0 
0.000882175 0.00131874 0.0 
0.000371207 0.000206841 0.0 
-0.0104645 0.00945748 0.0 
0.00126589 -0.00706702 0.0 
1.74261e-18 3.24861e-17 0.0 
0.00331394 0.00330198 0.0 
-0.000134707 0.00216915 0.0 
0.000591405 0.00112001 0.0 
-0.0443055 0.0153066 0.0 
0.00142395 0.000614869 0.0 
0.000330277 0.000297975 0.0 
-0.0123451 0.00249084 0.0 
0.000175053 0.00128408 0.0 
-0.0339613 0.00545073 0.0 
0.000518814 0.000724798 0.0 
-0.000213719 0.00225208 0.0 
0.00134287 0.00308865 0.0 
0.0102257 -0.00246512 0.0 
-0.00328891 -0.00649175 0.0 
7.55301e-05 -1.6604e-05 0.0 
0.0334454 0.00233216 0.0 
-0.0109913 -0.00284524 0.0 
0.000429113 0.000911476 0.0 
0.000770813 0.000575781 0.0 
-0.00121148 -0.0040311 0.0 
0.0241033 -0.00294694 0.0 
6.51621e-40 4.32695e-39 0.0 
1.72935e-17 -3.58328e-19 0.0 
-0.000665164 0.00254105 0.0 
0.00131414 0.000848281 0.0 
0.00887134 -0.00304273 0.0 
0.00599481 0.00405592 0.0 
0.0296722 0.00409641 0.0 
-0.00259673 0.00273806 0.0 
4.37364e-06 0.00182337 0.0 
0.000904276 -0.00909476 0.0 
-0.00892719 0.00223126 0.0 
0.00272545 0.00302607 0.0 
0.000319375 0.000389553 0.0 
2.92283e-39 2.13104e-38 0.0 
0.0189905 0.00207535 0.0 
0.000547117 0.00106166 0.0 
8.42354e-06 -4.15781e-05 0.0 
-6.27032e-05 0.00203639 0.0 
4.71902e-05 -0.00109347 0.0 
-7.46099e-65 -3.25469e-64 0.0 
0.0262631 -0.000324994 0.0 
7.15483e-21 -1.03294e-20 0.0 
0.0185654 -0.0041017 0.0 
1.48843e-05 -4.86857e-05 0.0 
0.0107695 -0.00335034 0.0 
3.74761e-64 1.45711e-64 0.0 
1.662e-11 3.78647e-12 0.0 
0.000946701 0.000865494 0.0 
-4.82703e-43 6.62383e-43 0.0 
-0.00153023 -0.00775653 0.0 
0.000279192 0.00077046 0.0 
0.0133723 -0.0122189 0.0 
0.0006497 0.000860868 0.0 
0.000475848 0.000940705 0.0 
0.00163829 0.000270591 0.0 
1.74557e-18 7.35083e-19 0.0 
0.000513839 0.00064984 0.0 
-0.00808702 -0.00339499 0.0 
0.0206851 -0.00153405 0.0 
1.76503e-05 5.58964e-07 0.0 
0.0497737 0.0189556 0.0 
-0.0132012 0.00760241 0.0 
4.22896e-05 9.0892e-06 0.0 
0.000127174 0.000693156 0.0 
4.14573e-18 1.74586e-19 0.0 
0.000307892 0.00188828 0.0 
0.000893853 -0.000590141 0.0 
-0.00307253 0.00235586 0.0 
-0.00169969 -0.00768085 0.0 
0.0184833 -0.00442284 0.0 
2.20622e-20 -1.2629e-19 0.0 
-0.0012085 -0.00745296 0.0 
8.69523e-06 3.37561e-06 0.0 
0.000259444 0.000747958 0.0 
-0.00189742 -0.00662377 0.0 
-6.57593e-38 -1.0373e-38 0.0 
0.000763111 0.000455027 0.0 
0.00041647 0.00107929 0.0 
4.64001e-20 5.37944e-21 0.0 
0.00130103 -0.000472119 0.0 
6.62468e-05 0.000737865 0.0 
7.74237e-05 0.00120627 0.0 
-0.00101085 -0.00819624 0.0 
-0.00307578 0.00285696 0.0 
-0.0414737 0.0198954 0.0 
0.000939027 0.000622584 0.0 
-0.000275548 0.00239073 0.0 
-0.000157005 0.00280542 0.0 
-0.000970855 0.00307562 0.0 
0.000600788 0.00039986 0.0 
0.00476645 0.00389427 0.0 
0.0144354 -0.0118114 0.0 
0.000394285 0.00109385 0.0 
-0.0040411 0.00235373 0.0 
0.000511452 0.000841356 0.0 
2.41925e-18 -6.0139e-18 0.0 
-0.000356557 0.00350887 0.0 
-0.005536 0.00127474 0.0 
-0.000561179 -0.00383454 0.0 
-0.0188313 -0.00568464 0.0 
-0.0522776 0.00868744 0.0 
-0.00857529 0.00445983 0.0 
0.0010046 0.000118129 0.0 
-0.00175197 -0.00971219 0.0 
-2.66263e-41 5.07941e-41 0.0 
0.00956144 -0.00621315 0.0 
0.0225154 0.00485861 0.0 
2.72937e-06 -1.29279e-05 0.0 
2.06086e-06 1.46757e-05 0.0 
-0.00586824 0.00726817 0.0 
0.0107441 1.81842e-05 0.0 
0.000506293 0.000825541 0.0 
0.0296209 0.0120087 0.0 
0.000459387 0.00146072 0.0 
0.0145476 0.0117303 0.0 
-1.34588e-42 -4.3433e-43 0.0 
0.000154143 0.000408118 0.0 
-0.00622248 0.00500436 0.0 
3.47021e-05 -0.000228354 0.0 
-0.000159269 0.00174205 0.0 
0.00129309 -5.0811e-05 0.0 
-0.00236438 -0.00878068 0.0 
0.0121901 -0.00406011 0.0 
-0.00756613 -0.00136771 0.0 
6.10939e-09 -2.87732e-08 0.0 
9.80919e-08 -6.73282e-07 0.0 
-0.000564796 0.00228745 0.0 
7.08855e-05 0.0011974 0.0 
-0.0014798 -0.00719531 0.0 
0.020404 -0.00253218 0.0 
0.0191138 -0.00144522 0.0 
0.000442357 0.000407719 0.0 
0.00328653 -0.00828849 0.0 
3.81094e-18 -6.93339e-18 0.0 
0.000742442 1.22698e-05 0.0 
-0.00882202 -0.000771353 0.0 
0.00022823 0.00350651 0.0 
-0.00142404 0.00374123 0.0 
-0.0272625 0.00987496 0.0 
0.000620403 0.000245974 0.0 
0.000384136 0.00109006 0.0 
0.0112948 0.000766288 0.0 
0.0249485 0.00521381 0.0 
-5.07941e-09 -2.05779e-08 0.0 
-6.0349e-40 -1.96664e-40 0.0 
7.33203e-05 1.0752e-06 0.0 
-0.00130662 -0.00624004 0.0 
-0.00207567 -0.00818079 0.0 
-0.000541274 0.00276172 0.0 
3.3037e-06 6.88777e-05 0.0 
-0.00356023 0.00218388 0.0 
0.0185292 -0.00339849 0.0 
-0.00393667 0.000757555 0.0 
0.0247798 0.00685944 0.0 
4.76515e-05 -0.000240553 0.0 
-0.000854152 0.00241862 0.0 
1.49408e-05 0.000504109 0.0 
0.0111908 -0.0016233 0.0 
0.0010413 0.00146309 0.0 
2.33172e-21 4.15802e-22 0.0 
3.29156e-23 -1.88029e-22 0.0 
0.000214917 0.000803861 0.0 
0.0263017 -0.0046098 0.0 
2.44278e-40 1.61869e-39 0.0 
0.0259186 -0.00266161 0.0 
-0.0639159 0.0243469 0.0 
0.0172155 -0.0025005 0.0 
5.59446e-20 -1.12613e-21 0.0 
-0.0102984 0.00651193 0.0 
-2.11185e-19 7.62193e-18 0.0 
1.82888e-05 9.85404e-05 0.0 
-0.00445799 0.00597311 0.0 
0.000680599 0.00760728 0.0 
-1.27247e-07 4.43736e-06 0.0 
0.00035002 0.00191743 0.0 
0.0352552 0.00430194 0.0 
0.000787669 -0.000293581 0.0 
-7.03661e-05 -0.000658619 0.0 
-0.000648255 0.00356672 0.0 
0.000327845 0.000657833 0.0 
0.0139034 -0.00579057 0.0 
-0.000572434 0.00425492 0.0 
-0.000123246 -0.0070117 0.0 
0.00793849 -0.00870042 0.0 
0.0012671 0.00495062 0.0 
0.0197383 -0.0186433 0.0 
0.0101802 -0.00349252 0.0 
0.0172047 -0.0029577 0.0 
2.54568e-20 -3.6752e-20 0.0 
0.000986933 -0.000109563 0.0 
0.0181449 -0.0183293 0.0 
-0.00579958 0.000583777 0.0 
0.0226456 -0.0208967 0.0 
9.2213e-07 2.45507e-05 0.0 
2.1958e-08 -7.01908e-08 0.0 
-4.48432e-45 1.80544e-44 0.0 
0.0135069 -0.000215317 0.0 
0.0198224 5.56052e-05 0.0 
0.00312592 0.00272891 0.0 
0.0164845 0.013123 0.0 
-6.52912e-05 -0.0105658 0.0 
-1.7208e-42 -1.27467e-43 0.0 
0.00729843 0.000138405 0.0 
5.50804e-06 2.37377e-07 0.0 
0.00103951 0.00278336 0.0 
0.0184811 -0.00384282 0.0 
7.2168e-05 0.00332954 0.0 
-0.00418458 0.007751 0.0 
0.0161729 -0.000167909 0.0 
0.000311954 0.000696639 0.0 
0.000385967 -0.00207007 0.0 
0.000265072 0.00138213 0.0 
0.0172808 0.000553179 0.0 
0.000357762 0.005992 0.0 
-0.00689277 0.00294368 0.0 
0.000367303 0.00057453 0.0 
-0.014112 0.00484413 0.0 
0.000498946 0.000996789 0.0 
-0.000515065 0.00303125 0.0 
0.0220009 -0.00244422 0.0 
0.000548534 0.000541831 0.0 
1.06989e-17 -1.56907e-17 0.0 
6.5453e-06 -1.14578e-05 0.0 
0.000687428 0.000785043 0.0 
0.00492077 0.00402592 0.0 
0.00400726 -0.00529517 0.0 
4.16709e-05 -0.00720292 0.0 
1.7064e-07 7.36461e-06 0.0 
0.000564494 0.000789013 0.0 
0.000385844 0.000276162 0.0 
-0.0265722 -0.00495477 0.0 
3.62181e-07 -6.43686e-06 0.0 
0.000178508 0.00010379 0.0 
-0.00144785 -0.00654861 0.0 
0.000408417 0.000959713 0.0 
-0.000711532 0.00232628 0.0 
0.00130998 0.000184327 0.0 
-0.00150916 -0.00727891 0.0 
-0.00463636 0.00110279 0.0 
3.47034e-05 0.000424004 0.0 
0.0128961 -0.0111414 0.0 
0.000404915 0.000724556 0.0 
-0.00711441 0.000468429 0.0 
0.00689327 0.00501762 0.0 
-0.010799 -0.00410689 0.0 
-0.000617873 0.00401939 0.0 
0.000706025 0.000399811 0.0 
0.00148947 -0.00738038 0.0 
0.000363709 0.000797367 0.0 
-0.000270963 0.00145356 0.0 
-0.0169183 -0.00623907 0.0 
-0.0214959 0.00561096 0.0 
0.000182828 -0.000276416 0.0 
0.000242564 0.00319983 0.0 
0.0135097 0.00322626 0.0 
0.000421498 0.0011843 0.0 
0.000246983 0.000656499 0.0 
0.0110537 -0.00835267 0.0 
0.0189425 -0.0157376 0.0 
0.00465378 0.00080401 0.0 
9.11826e-22 -5.37943e-21 0.0 
0.00269107 -0.011534 0.0 
-0.00662732 -0.00141475 0.0 
-0.00178435 -0.00724348 0.0 
0.00152127 0.00343435 0.0 
-0.00121202 -0.00896186 0.0 
-0.00122131 0.00367433 0.0 
0.000433445 0.0010049 0.0 
-0.00154105 -0.00858518 0.0 
0.00286878 -0.000683109 0.0 
-0.000404057 0.00341612 0.0 
0.000530444 0.000826601 0.0 
0.000925252 0.00375953 0.0 
4.78197e-05 0.00538378 0.0 
0.00144396 0.00185358 0.0 
0.000400366 0.000595455 0.0 
0.0013783 -2.90611e-05 0.0 
-0.00517394 0.00210174 0.0 
-1.20274e-41 2.6559e-41 0.0 
-0.000870594 0.00238081 0.0 
0.00030629 0.0011558 0.0 
0.000313024 0.000810536 0.0 
0.0204532 0.00470541 0.0 
1.77902e-26 -2.11958e-25 0.0 
0.0141311 0.00245393 0.0 
0.000640618 0.000646116 0.0 
0.000100094 -0.000687201 0.0 
-0.000480061 0.00205971 0.0 
0.0018262 -0.0113112 0.0 
0.0304311 0.00307621 0.0 
-0.00137433 0.00342671 0.0 
0.0213039 -0.00200636 0.0 
-5.58217e-43 -1.00104e-43 0.0 
-0.00550526 -0.000637164 0.0 
0.00040844 0.000210958 0.0 
-0.0210444 0.0106563 0.0 
0.000730248 0.000352224 0.0 
0.0430033 0.0096586 0.0 
0.0023187 0.00393316 0.0 
0.00477872 0.00356271 0.0 
8.1061e-05 -0.00976656 0.0 
2.12959e-05 1.82915e-06 0.0 
0.000363038 -0.00249283 0.0 
0.00183575 -0.00837363 0.0 
0.000376069 0.000667004 0.0 
0.0163296 -0.00165293 0.0 
-0.000312031 0.00214883 0.0 
0.0216082 0.00351702 0.0 
-0.000879421 -0.0092804 0.0 
0.00261734 0.00396025 0.0 
-8.14924e-40 1.36744e-39 0.0 
0.0413534 0.0178088 0.0 
0.00330594 -0.0076091 0.0 
0.0189959 -0.0176989 0.0 
0.0148351 -0.0136039 0.0 
0.0407264 -2.03214e-05 0.0 
0.00925226 -0.007951 0.0 
0.000268394 0.00126401 0.0 
0.000216665 0.00168254 0.0 
0.0124467 -0.00552393 0.0 
1.09939e-07 -7.35953e-08 0.0 
1.93383e-23 -3.59866e-22 0.0 
0.00031774 -0.00618342 0.0 
-0.000502965 0.00332956 0.0 
0.000223461 0.000817193 0.0 
0.000225687 0.000382563 0.0 
0.000811905 0.000507171 0.0 
0.000347753 0.00115964 0.0 
-0.00277691 0.0020989 0.0 
7.15921e-07 -5.56365e-07 0.0 
5.1085e-05 3.85234e-06 0.0 
-0.00183541 -0.00816494 0.0 
2.63668e-05 -0.000124889 0.0 
0.000124883 -0.00195233 0.0 
0.0169262 -0.0143212 0.0 
-0.00340226 0.00130082 0.0 
0.000309519 0.000735178 0.0 
1.60569e-05 0.000130709 0.0 
3.02041e-20 5.42964e-21 0.0 
0.0235449 -0.0030995 0.0 
0.0265665 -0.000959976 0.0 
3.62952e-05 -0.000171916 0.0 
-2.16403e-05 0.000518798 0.0 
0.00212027 -0.0120062 0.0 
0.00333206 0.0028484 0.0 
-1.54081e-07 4.21853e-05 0.0 
-5.72257e-43 -8.89576e-43 0.0 
0.0121339 -0.0044953 0.0 
-0.000344538 0.00199369 0.0 
0.00191128 0.00375343 0.0 
-0.000784196 -0.00673494 0.0 
0.000439101 0.00118871 0.0 
-0.000971678 0.00380806 0.0 
0.00238461 -0.01449 0.0 
0.000456309 0.000546705 0.0 
0.0119361 -0.0088996 0.0 
0.0315629 0.00299625 0.0 
3.05794e-19 4.06991e-18 0.0 
0.000880162 0.000357456 0.0 
0.000420498 0.00100395 0.0 
0.00244995 -0.00579706 0.0 
0.000751641 0.00342809 0.0 
-3.95343e-42 -1.14641e-42 0.0 
-0.0167115 -0.0034382 0.0 
-0.0489681 0.0136663 0.0 
0.000528321 0.000824738 0.0 
-0.00112744 -0.00565516 0.0 
0.000132378 0.00205137 0.0 
0.000617256 0.000187735 0.0 
-0.034005 -0.00320238 0.0 
-0.0270495 0.00182977 0.0 