<VTKFile type="UnstructuredGrid" version="0.1" byte_order="LittleEndian">
  <UnstructuredGrid>
    <Piece NumberOfPoints="19258" NumberOfCells="38431">
      <Points>
        <DataArray type = "Float64" NumberOfComponents="3" format="ascii">
5.94838 3.88472 0.0 
5.24391 2.97979 0.0 
8.04286 4.37013 0.0 
5.89876 5.00283 0.0 
5.93597 3.87577 0.0 
5.94355 3.87782 0.0 
5.79128 1.38836 0.0 
5.23073 3.03153 0.0 
13.3097 5.42746 0.0 
6.19102 4.99663 0.0 
4.47515 2.01918 0.0 
5.18886 2.91261 0.0 
10.509 2.16065 0.0 
4.97617 0.446558 0.0 
5.98829 0.931888 0.0 
3.69411 2.99346 0.0 
6.12556 4.9748 0.0 
14 3.51677 0.0 
6.29516 4.9509 0.0 
5.94977 3.92695 0.0 
5.12721 2.91836 0.0 
6.20763 5.00408 0.0 
6.20368 1.34659 0.0 
3.71071 2.95054 0.0 
4.50386 2.92259 0.0 
13.6141 3.4405 0.0 
5.98637 2.98236 0.0 
5.93517 3.86966 0.0 
5.84208 5.04961 0.0 
6.13585 1.75036 0.0 
5.95957 3.92842 0.0 
4.48922 2.91647 0.0 
4.59764 2.89463 0.0 
5.95741 3.93603 0.0 
5.39823 0 0.0 
6.05493 5.17467 0.0 
3.79459 2.97644 0.0 
5.63895 2.94845 0.0 
3.79871 2.77655 0.0 
9.5811 3.24988 0.0 
5.53806 1.07946 0.0 
5.88496 2.94931 0.0 
3.64741 2.96986 0.0 
4.39198 2.91974 0.0 
4.93282 2.75257 0.0 
6.02054 3.06572 0.0 
6.11461 5.11119 0.0 
5.94948 3.90899 0.0 
3.95092 2.71768 0.0 
5.91062 3.91872 0.0 
5.90555 5.17844 0.0 
1.78972 1.49026 0.0 
5.90997 3.90518 0.0 
7.31247 3.56401 0.0 
4.71056 2.69981 0.0 
6.45609 2.76997 0.0 
6.27662 4.96005 0.0 
3.88442 2.91612 0.0 
14 5.22354 0.0 
6.52475 1.11122 0.0 
4.4173 2.8361 0.0 
12.7499 5.34949 0.0 
13.7601 3.97602 0.0 
7.72487 3.57162 0.0 
5.9413 3.91653 0.0 
4.45144 2.85058 0.0 
3.64628 3.00604 0.0 
5.92768 0 0.0 
5.81479 5.08726 0.0 
3.81885 3.00476 0.0 
3.83992 2.99737 0.0 
5.24601 3.04727 0.0 
4.28913 2.92983 0.0 
3.79707 2.93404 0.0 
5.9454 3.95458 0.0 
6.78708 0.400021 0.0 
5.92178 3.91738 0.0 
5.95374 3.97309 0.0 
5.81118 2.99338 0.0 
5.96181 3.96518 0.0 
13.6376 7.10882 0.0 
6.22368 4.98015 0.0 
5.85673 4.9874 0.0 
6.93757 1.74957 0.0 
6.06526 5.12749 0.0 
13.8115 3.31151 0.0 
6.2208 5.00159 0.0 
6.20633 4.99639 0.0 
6.90087 0.85239 0.0 
5.3017 3.08452 0.0 
6.21877 4.97177 0.0 
5.93449 3.90888 0.0 
5.28474 3.08838 0.0 
5.98018 3.98045 0.0 
6.24016 4.91021 0.0 
6.22883 4.90023 0.0 
2.91863 3.24503 0.0 
6.2251 4.9188 0.0 
5.94921 3.93641 0.0 
12.2046 5.04654 0.0 
5.50361 2.86157 0.0 
4.97178 2.72752 0.0 
11.806 6.422 0.0 
5.96164 3.94862 0.0 
6.20415 4.94008 0.0 
13.2184 6.42737 0.0 
7.0496 1.37627 0.0 
6.0992 5.0511 0.0 
5.83339 5.01876 0.0 
11.907 7.10905 0.0 
5.92326 3.92785 0.0 
4.34736 2.38141 0.0 
6.12012 3.19746 0.0 
5.26386 2.87078 0.0 
9.30542 0.45678 0.0 
4.75804 2.73389 0.0 
6.19428 4.93484 0.0 
4.51752 2.91259 0.0 
6.10136 3.1168 0.0 
5.96692 3.93981 0.0 
5.89255 3.89889 0.0 
9.44967 2.1024 0.0 
12.3774 5.17026 0.0 
6.22542 5.01031 0.0 
4.47203 2.81887 0.0 
6.1785 4.98499 0.0 
6.20025 4.95884 0.0 
6.24583 4.9293 0.0 
12.7327 5.72097 0.0 
6.23069 4.94699 0.0 
3.78488 0 0.0 
11.8407 5.61878 0.0 
4.81689 2.70702 0.0 
6.19268 4.9703 0.0 
11.9654 6.25513 0.0 
6.01861 4.91105 0.0 
6.20272 4.98345 0.0 
4.39353 2.81675 0.0 
2.73182 3.07919 0.0 
2.95432 0.526811 0.0 
5.80073 2.93418 0.0 
6.10608 3.03637 0.0 
5.93126 3.9425 0.0 
5.93151 3.91581 0.0 
6.22664 4.95266 0.0 
2.46695 3.20666 0.0 
6.24729 4.94587 0.0 
12.3034 6.16943 0.0 
5.99214 3.96721 0.0 
5.01677 2.75866 0.0 
3.87205 2.85161 0.0 
4.14731 2.80411 0.0 
6.24928 4.88628 0.0 
5.93187 2.88598 0.0 
4.7809 2.6632 0.0 
4.58129 2.73862 0.0 
6.11141 3.40808 0.0 
4.98053 2.78537 0.0 
6.30183 2.41597 0.0 
6.22711 4.87545 0.0 
8.79378 1.53756 0.0 
6.22769 4.97133 0.0 
6.22019 4.92664 0.0 
13.7675 4.79476 0.0 
0.374057 3.42032 0.0 
13.7007 6.10265 0.0 
7.14761 3.13505 0.0 
6.25686 2.11473 0.0 
6.38454 3.67829 0.0 
5.97645 3.95303 0.0 
0.811798 3.44131 0.0 
6.24917 4.95761 0.0 
4.94565 2.80589 0.0 
6.1747 4.93572 0.0 
4.37781 2.86018 0.0 
4.92686 2.60663 0.0 
6.39033 3.56731 0.0 
6.17582 3.46813 0.0 
4.0015 2.41348 0.0 
5.94088 3.93851 0.0 
6.12546 4.98363 0.0 
3.76854 3.01338 0.0 
6.1824 4.91793 0.0 
4.45782 2.91763 0.0 
6.24133 4.95212 0.0 
6.22313 4.96144 0.0 
6.23753 4.95736 0.0 
2.6421 3.45052 0.0 
6.25409 4.93672 0.0 
5.93374 3.92798 0.0 
1.25852 1.47753 0.0 
3.53896 3.09957 0.0 
5.40588 2.35711 0.0 
6.2162 4.96698 0.0 
7.71223 3.77218 0.0 
6.00628 3.98437 0.0 
6.94701 2.99688 0.0 
5.90261 3.90863 0.0 
3.70229 2.70877 0.0 
6.61646 1.97294 0.0 
5.96449 3.92379 0.0 
4.89541 2.72226 0.0 
3.74467 3.01235 0.0 
6.24109 3.52387 0.0 
6.21721 4.91038 0.0 
6.23609 4.93967 0.0 
6.02246 4.01145 0.0 
6.18649 4.94126 0.0 
6.16821 4.97484 0.0 
5.95166 3.94857 0.0 
3.68931 2.89601 0.0 
6.19039 4.90339 0.0 
6.15279 4.99474 0.0 
3.57666 2.99219 0.0 
3.70883 2.97135 0.0 
3.51653 3.10378 0.0 
3.78331 2.95751 0.0 
6.00835 3.53351 0.0 
6.09753 3.50809 0.0 
4.42826 0.314038 0.0 
5.34759 2.73026 0.0 
6.19135 4.97369 0.0 
6.20204 4.91911 0.0 
6.1611 4.9706 0.0 
6.01732 5.02162 0.0 
5.295 3.07535 0.0 
5.94264 0.361387 0.0 
3.68474 3.04136 0.0 
5.93699 3.90334 0.0 
3.01681 3.32158 0.0 
6.33574 3.47396 0.0 
5.06769 2.97702 0.0 
5.25335 2.94471 0.0 
4.27275 2.60048 0.0 
6.11953 4.95699 0.0 
6.13873 3.61795 0.0 
6.36753 3.36569 0.0 
5.99718 3.98746 0.0 
7.48167 3.41798 0.0 
6.05677 3.59964 0.0 
6.15471 3.5554 0.0 
5.97786 3.59128 0.0 
6.2208 4.93608 0.0 
6.20131 4.94515 0.0 
5.26821 3.07759 0.0 
5.94034 3.92407 0.0 
5.94608 3.89923 0.0 
6.43768 3.48642 0.0 
6.17948 4.9283 0.0 
5.94416 3.90563 0.0 
7.09438 5.53919 0.0 
6.58275 3.29657 0.0 
6.49914 3.3939 0.0 
6.59343 3.08209 0.0 
6.19367 4.87574 0.0 
7.87409 4.03071 0.0 
6.54344 3.51799 0.0 
5.08242 2.79515 0.0 
10.3649 1.9335 0.0 
6.21023 4.88766 0.0 
6.56696 2.34506 0.0 
6.21785 4.94306 0.0 
5.9708 3.96387 0.0 
5.98066 3.96489 0.0 
6.19993 4.9276 0.0 
6.99428 3.54641 0.0 
6.21493 4.94856 0.0 
6.11177 5.0194 0.0 
6.76246 3.13587 0.0 
6.13453 5.00086 0.0 
6.19032 3.68545 0.0 
6.14339 4.97214 0.0 
7.84299 3.73692 0.0 
3.38932 3.21157 0.0 
5.98994 3.95171 0.0 
6.80282 3.33225 0.0 
5.55522 4.88897 0.0 
7.08353 3.36033 0.0 
7.79496 3.90608 0.0 
3.2387 0 0.0 
7.8773 3.85474 0.0 
7.29843 3.94873 0.0 
5.95084 3.92031 0.0 
7.809 3.62777 0.0 
6.6919 3.58506 0.0 
9.22489 1.60885 0.0 
5.95697 3.92074 0.0 
5.92182 3.90889 0.0 
3.9018 1.51017 0.0 
6.94937 3.39935 0.0 
6.22061 4.98563 0.0 
5.98051 3.66267 0.0 
5.9715 3.93207 0.0 
5.94228 3.90147 0.0 
5.94329 3.91028 0.0 
6.21378 4.97499 0.0 
5.93712 3.89837 0.0 
6.21274 4.96279 0.0 
5.18666 2.87563 0.0 
6.42789 0.609191 0.0 
7.56064 3.89073 0.0 
2.84512 3.53862 0.0 
6.21842 3.61454 0.0 
6.58495 3.62393 0.0 
5.32989 2.89188 0.0 
13.4262 4.81154 0.0 
5.18914 2.94803 0.0 
5.97915 3.94562 0.0 
5.9465 3.91518 0.0 
6.23854 4.99124 0.0 
6.1531 4.96088 0.0 
6.12584 5.03165 0.0 
6.60945 3.4699 0.0 
7.30397 3.3215 0.0 
6.05891 5.0248 0.0 
0.53658 0 0.0 
3.64414 3.05229 0.0 
7.77323 3.37677 0.0 
7.67577 3.9608 0.0 
5.2575 2.90565 0.0 
7.58416 3.69917 0.0 
13.5022 5.86578 0.0 
6.70302 3.44359 0.0 
5.92906 3.68942 0.0 
3.68871 3.03369 0.0 
5.95145 3.91458 0.0 
1.53648 2.96728 0.0 
7.46678 1.50641 0.0 
6.16268 4.98656 0.0 
5.92711 3.90692 0.0 
0 0.610044 0.0 
6.21213 4.96965 0.0 
6.12683 4.9683 0.0 
8.19995 1.51058 0.0 
1.54539 1.98669 0.0 
7.95385 2.58075 0.0 
5.48279 2.68988 0.0 
5.9593 3.91728 0.0 
4.22195 2.9478 0.0 
4.23398 2.91078 0.0 
3.64125 1.87092 0.0 
5.92778 3.90119 0.0 
3.993 2.97223 0.0 
2.03758 0.931837 0.0 
6.00176 3.96432 0.0 
3.06832 2.31449 0.0 
2.32582 1.48912 0.0 
2.69251 0 0.0 
5.48137 2.78795 0.0 
5.81145 5.00279 0.0 
6.2376 2.99138 0.0 
9.33489 3.65701 0.0 
5.9444 3.88185 0.0 
5.16352 3.03281 0.0 
3.21248 2.97732 0.0 
4.45433 2.78695 0.0 
3.92068 2.98304 0.0 
5.20553 3.05264 0.0 
3.58829 3.06658 0.0 
9.19717 3.75191 0.0 
13.5908 4.40086 0.0 
2.64523 1.01757 0.0 
4.01329 2.95968 0.0 
4.33107 0 0.0 
9.75866 3.84066 0.0 
1.05528 2.95813 0.0 
2.44862 3.40708 0.0 
2.54785 2.62394 0.0 
9.54293 3.8046 0.0 
8.87211 0 0.0 
3.72543 3.00088 0.0 
3.90854 2.98308 0.0 
9.01277 3.99664 0.0 
3.3294 2.49396 0.0 
3.5755 3.06923 0.0 
6.22366 4.96846 0.0 
2.69544 2.31748 0.0 
2.32902 2.39241 0.0 
6.65543 2.63192 0.0 
3.2674 3.20709 0.0 
8.32347 1.35824 0.0 
8.15079 1.67187 0.0 
3.0802 3.00758 0.0 
5.04792 2.94809 0.0 
3.42489 1.49077 0.0 
7.38292 3.05165 0.0 
9.28624 3.43598 0.0 
3.44079 2.20253 0.0 
8.7501 3.28186 0.0 
6.17734 4.97657 0.0 
5.95072 3.901 0.0 
5.87615 2.09381 0.0 
3.35065 2.99872 0.0 
6.26389 4.95704 0.0 
3.27676 2.73052 0.0 
7.96384 2.7958 0.0 
5.30062 3.10105 0.0 
8.98824 3.69652 0.0 
3.08023 2.86633 0.0 
5.27651 3.06691 0.0 
7.98486 4.0374 0.0 
5.20051 1.89342 0.0 
6.14171 4.96488 0.0 
10.1506 6.14927 0.0 
3.82085 2.98133 0.0 
3.23559 3.11762 0.0 
4.72165 1.27133 0.0 
6.43683 2.56622 0.0 
2.88827 1.55862 0.0 
9.62474 2.20866 0.0 
2.80921 3.20239 0.0 
3.18435 1.03352 0.0 
7.95556 1.49687 0.0 
7.4939 1.80646 0.0 
3.07849 2.64038 0.0 
2.27574 2.92388 0.0 
6.2026 4.98777 0.0 
9.26872 1.76573 0.0 
3.41085 2.8532 0.0 
3.48918 3.11867 0.0 
5.18602 3.02394 0.0 
3.24508 2.85684 0.0 
3.61812 3.05715 0.0 
3.76364 2.98276 0.0 
11.6799 4.7511 0.0 
3.3708 3.08743 0.0 
3.55985 3.08562 0.0 
5.26893 2.80082 0.0 
8.59792 4.20356 0.0 
4.27511 2.78591 0.0 
6.13563 4.99115 0.0 
5.18011 2.79478 0.0 
4.10743 2.76153 0.0 
3.68595 3.00842 0.0 
3.98089 2.96799 0.0 
6.06559 5.04771 0.0 
8.29503 3.70404 0.0 
7.26835 0.538774 0.0 
3.45712 3.14106 0.0 
8.13227 3.22078 0.0 
4.99699 2.70769 0.0 
9.35749 0 0.0 
14 0.503782 0.0 
3.63863 3.02678 0.0 
8.88881 2.13673 0.0 
11.8682 8 0.0 
1.85762 2.55012 0.0 
8.00714 2.47175 0.0 
8.22342 3.11769 0.0 
5.26277 3.0562 0.0 
4.51992 2.87758 0.0 
8.52445 2.43436 0.0 
9.71655 0.891111 0.0 
8.69857 2.22207 0.0 
5.1996 3.04743 0.0 
13.1892 4.79497 0.0 
8.32602 2.76885 0.0 
11.6891 7.56102 0.0 
5.31609 3.0842 0.0 
6.10166 4.98718 0.0 
3.14816 3.25165 0.0 
10.487 6.52303 0.0 
8.45204 2.58374 0.0 
6.13475 5.01424 0.0 
6.0768 4.95868 0.0 
10.4949 7.07502 0.0 
5.14741 3.02233 0.0 
4.19125 2.941 0.0 
8.41371 2.65494 0.0 
8.63322 2.33389 0.0 
0 3.06825 0.0 
6.19145 4.98378 0.0 
[...]
<PointData>
  <DataArray type = "Float64" Name="Vitesse" NumberOfComponents="3" format="ascii">
0.0148081 -0.0219045 0.0 
0.648603 0.164771 0.0 
0.731729 0.344016 0.0 
6.64841e-05 -0.31117 0.0 
0.0276537 -0.0497384 0.0 
0.0273881 -0.0306549 0.0 
1.29494 0.126549 0.0 
0.266885 0.0441395 0.0 
0.991213 0.876795 0.0 
0.0411633 -0.0430626 0.0 
1.48747 -0.100376 0.0 
1.00399 0.169151 0.0 
0.998473 -0.077027 0.0 
1.2695 0.00659971 0.0 
1.23107 0.0820495 0.0 
1.49061 -0.697103 0.0 
-0.00289165 -0.103901 0.0 
0.777475 0.359494 0.0 
-0.0494027 0.0639029 0.0 
-0.0681995 -0.0436887 0.0 
0.895684 0.0448651 0.0 
0.0568564 -0.0273275 0.0 
1.22927 0.150228 0.0 
1.60098 -0.700299 0.0 
0.302799 0.147805 0.0 
0.887303 0.494661 0.0 
1.50319 0.447758 0.0 
0.04127 -0.0484033 0.0 
0.113642 -0.331668 0.0 
1.27931 0.220156 0.0 
-0.0648617 -0.0199321 0.0 
0.378321 0.143886 0.0 
0.372714 -0.00759379 0.0 
-0.0791153 -0.0299837 0.0 
1.23472 0 0.0 
0.394084 -0.186581 0.0 
1.13407 -0.451691 0.0 
1.34964 0.405262 0.0 
1.59226 -0.519128 0.0 
0.547049 -0.664299 0.0 
1.28654 0.0691967 0.0 
1.49204 0.417389 0.0 
1.55251 -0.773532 0.0 
0.566737 0.148925 0.0 
1.61745 -0.0958719 0.0 
1.37166 0.425815 0.0 
0.234083 -0.143761 0.0 
-0.0351865 -0.0336162 0.0 
1.64771 -0.417162 0.0 
-0.0744905 -0.139117 0.0 
0.487947 -0.245192 0.0 
1.04769 -0.0968137 0.0 
-0.049036 -0.134392 0.0 
0.571987 0.970745 0.0 
1.68494 -0.211319 0.0 
1.31061 0.609497 0.0 
-0.0360181 0.0418003 0.0 
1.59194 -0.51782 0.0 
0.952826 0.863222 0.0 
1.1648 0.122827 0.0 
1.30304 -0.0597986 0.0 
0.911587 0.692665 0.0 
0.840546 0.613769 0.0 
0.43521 0.849948 0.0 
-0.0543915 -0.059118 0.0 
1.09948 -0.0201635 0.0 
1.52526 -0.794443 0.0 
1.20033 0 0.0 
0.242258 -0.317623 0.0 
0.265848 -0.158133 0.0 
0.289167 -0.162192 0.0 
0.194666 0.0321844 0.0 
0.650279 0.0625981 0.0 
1.62354 -0.611613 0.0 
-0.115488 -0.070338 0.0 
1.1378 0.0372488 0.0 
-0.0666368 -0.109649 0.0 
-0.136407 -0.0610683 0.0 
1.38562 0.371297 0.0 
-0.120733 -0.036986 0.0 
1.14067 0.383529 0.0 
0.00202198 -0.0136291 0.0 
-0.0329727 -0.33474 0.0 
1.09045 0.230196 0.0 
0.266794 -0.190139 0.0 
0.836528 0.393674 0.0 
0.0504695 -0.0153807 0.0 
0.0394965 -0.0290533 0.0 
1.1189 0.0797937 0.0 
0.107739 0.0170782 0.0 
-0.0163427 -0.0185309 0.0 
-0.0436843 -0.0723333 0.0 
0.045413 -0.0128876 0.0 
-0.129746 -0.0032625 0.0 
-0.133531 0.011072 0.0 
-0.152854 0.000590183 0.0 
0.77236 -0.489387 0.0 
-0.121415 -0.00750654 0.0 
-0.0846889 -0.0505974 0.0 
0.878896 0.186899 0.0 
1.47641 0.472409 0.0 
1.79652 -0.0180629 0.0 
0.722446 -0.145256 0.0 
-0.0970171 -0.0271182 0.0 
-0.0834683 -0.0324836 0.0 
0.985021 0.580674 0.0 
1.08243 0.145657 0.0 
0.127656 -0.144448 0.0 
0.0348836 -0.341391 0.0 
0.797002 -0.0335067 0.0 
-0.0844576 -0.111235 0.0 
1.55802 -0.189126 0.0 
1.25232 0.4475 0.0 
1.34533 0.353973 0.0 
1.12862 -0.0285187 0.0 
1.60789 -0.219068 0.0 
-0.0945718 -0.0422937 0.0 
0.348591 0.120071 0.0 
1.32293 0.466468 0.0 
-0.0793917 -0.008831 0.0 
-0.0444414 -0.177102 0.0 
0.46308 -0.330534 0.0 
0.87118 0.378546 0.0 
0.0700567 -0.0106547 0.0 
1.30814 -0.0949837 0.0 
0.0157093 -0.0554393 0.0 
-0.0441969 -0.0367082 0.0 
-0.098799 0.0135361 0.0 
0.853611 0.577712 0.0 
-0.0676266 -0.00547775 0.0 
1.21358 0 0.0 
0.719403 -0.241156 0.0 
1.74327 -0.174677 0.0 
-0.01867 -0.0434995 0.0 
0.684212 -0.119135 0.0 
-0.125232 -0.199845 0.0 
0.0103395 -0.0332728 0.0 
1.45935 -0.098768 0.0 
0.887646 -0.388209 0.0 
1.14664 -0.0451705 0.0 
1.47049 0.402212 0.0 
1.48389 0.519304 0.0 
-0.104429 -0.0988139 0.0 
-0.058557 -0.083827 0.0 
-0.0565359 -0.0101408 0.0 
0.857914 -0.271133 0.0 
-0.06785 0.0122727 0.0 
0.691301 0.100545 0.0 
-0.103649 0.0334431 0.0 
1.67203 0.0290176 0.0 
1.67065 -0.524836 0.0 
1.74224 -0.269951 0.0 
-0.168983 0.028989 0.0 
1.51948 0.446496 0.0 
1.76598 -0.164369 0.0 
1.55926 -0.207756 0.0 
1.21106 0.49402 0.0 
1.43839 -0.0720113 0.0 
1.30754 0.427292 0.0 
-0.19248 0.00541893 0.0 
1.06433 -0.215208 0.0 
-0.0173133 -0.00979147 0.0 
-0.10801 -0.0142938 0.0 
0.906985 0.845236 0.0 
0.996387 -0.00879637 0.0 
1.13463 0.813554 0.0 
0.815189 0.816404 0.0 
1.29056 0.322707 0.0 
0.691597 0.88411 0.0 
-0.0939086 0.00589028 0.0 
0.98123 -0.0227648 0.0 
-0.0446018 0.0128604 0.0 
1.25051 -0.152225 0.0 
-0.0931177 -0.0620139 0.0 
1.2089 -0.00495827 0.0 
1.8106 -0.0307304 0.0 
0.876717 0.865938 0.0 
1.11037 0.60294 0.0 
1.51244 -0.277169 0.0 
-0.0929441 -0.0726368 0.0 
0.0159726 -0.103589 0.0 
0.415923 -0.224674 0.0 
-0.128595 -0.0535908 0.0 
0.440053 0.157337 0.0 
-0.0563262 0.00523251 0.0 
-0.0385114 -0.0141293 0.0 
-0.0461288 0.000787922 0.0 
0.732303 -0.283662 0.0 
-0.0836878 0.0211992 0.0 
-0.0790959 -0.0847001 0.0 
1.01945 -0.0590678 0.0 
0.976189 -0.640439 0.0 
1.56409 0.232886 0.0 
-0.0267669 -0.0210789 0.0 
0.425659 0.893357 0.0 
-0.116772 0.0535733 0.0 
0.9832 0.778371 0.0 
-0.0591295 -0.155156 0.0 
1.49712 -0.511587 0.0 
1.17229 0.302403 0.0 
-0.0537292 -0.00457011 0.0 
1.75422 -0.114801 0.0 
0.644961 -0.31679 0.0 
0.999112 0.701854 0.0 
-0.137881 -0.0146743 0.0 
-0.0811837 0.00114095 0.0 
-0.139484 0.0699712 0.0 
-0.0816144 -0.0503 0.0 
-0.00646601 -0.0656846 0.0 
-0.102832 -0.0515806 0.0 
1.55271 -0.669012 0.0 
-0.154893 -0.0435279 0.0 
0.0389562 -0.0783377 0.0 
1.49432 -0.842624 0.0 
1.56836 -0.702267 0.0 
1.27534 -0.987676 0.0 
1.50104 -0.588155 0.0 
0.978146 0.293443 0.0 
1.04527 0.477298 0.0 
1.25887 -0.00953867 0.0 
1.7018 0.409955 0.0 
-0.0109663 -0.0445163 0.0 
-0.124577 -0.0329054 0.0 
-0.0154419 -0.0725191 0.0 
0.0553547 -0.219738 0.0 
0.138666 0.0318377 0.0 
1.21656 0.0266822 0.0 
0.439934 -0.283032 0.0 
-0.0312754 -0.0626985 0.0 
0.690745 -0.548445 0.0 
1.03446 0.776649 0.0 
0.395558 -0.141146 0.0 
0.892896 0.23566 0.0 
1.62703 -0.21761 0.0 
-0.0415628 -0.110911 0.0 
0.797585 0.545813 0.0 
1.12693 0.760365 0.0 
-0.127342 0.0309772 0.0 
0.552465 0.860441 0.0 
0.833834 0.387456 0.0 
0.943382 0.579254 0.0 
0.829781 0.202695 0.0 
-0.0900774 -0.0148866 0.0 
-0.0732205 -0.0355857 0.0 
0.061922 -0.00755949 0.0 
-0.068556 -0.0658642 0.0 
-0.0175655 -0.0365647 0.0 
0.972571 0.889742 0.0 
-0.108288 -0.0571628 0.0 
-0.031721 -0.0453634 0.0 
1.27465 0.29797 0.0 
1.19696 1.08596 0.0 
1.08712 0.986748 0.0 
1.26869 0.879684 0.0 
-0.201378 -0.034668 0.0 
0.482513 0.730258 0.0 
0.91055 1.07533 0.0 
1.53757 0.100995 0.0 
1.16402 -0.00525985 0.0 
-0.178016 -0.0181383 0.0 
1.20072 0.424816 0.0 
-0.0766344 -0.0186085 0.0 
-0.112884 -0.0148403 0.0 
-0.108257 0.00815078 0.0 
-0.108502 -0.0359305 0.0 
0.705133 1.11885 0.0 
-0.0656465 -0.021949 0.0 
0.081036 -0.121204 0.0 
1.09827 0.921946 0.0 
0.0512237 -0.0955636 0.0 
0.644171 0.621671 0.0 
-0.0102554 -0.0882464 0.0 
0.418211 0.809599 0.0 
0.870803 -1.05121 0.0 
-0.0831538 0.0390274 0.0 
0.976816 1.08288 0.0 
-0.155071 -0.316665 0.0 
0.765377 0.97856 0.0 
0.434132 0.840083 0.0 
1.17004 0 0.0 
0.439142 0.768681 0.0 
0.428769 1.03449 0.0 
-0.0556767 -0.0370625 0.0 
0.415985 0.822953 0.0 
0.77687 1.25234 0.0 
1.17101 -0.217235 0.0 
-0.0527795 -0.0217039 0.0 
-0.0505166 -0.105275 0.0 
1.31314 -0.13196 0.0 
0.823366 1.06628 0.0 
0.0143598 -0.0163858 0.0 
0.640152 0.183861 0.0 
-0.0637587 0.00736074 0.0 
-0.0244199 -0.0477986 0.0 
-0.0414182 -0.0503561 0.0 
-0.00914777 -0.0232611 0.0 
-0.0209946 -0.0595352 0.0 
-0.0358106 -0.0244676 0.0 
1.21727 0.210186 0.0 
1.17526 0.0577978 0.0 
0.4338 0.96001 0.0 
0.612713 -0.340533 0.0 
0.813687 0.677885 0.0 
0.745504 1.15644 0.0 
1.30772 0.418149 0.0 
0.961839 0.872436 0.0 
0.778009 0.122829 0.0 
-0.0806837 0.0171064 0.0 
-0.0488308 -0.0450115 0.0 
0.0263693 0.000939745 0.0 
-0.0366392 -0.0806679 0.0 
0.10524 -0.109299 0.0 
0.964342 1.16503 0.0 
0.664577 0.868791 0.0 
0.0738328 -0.178544 0.0 
1.00568 0 0.0 
0.61431 -0.379783 0.0 
0.436321 0.76844 0.0 
0.429822 0.915265 0.0 
1.13494 0.298133 0.0 
0.456423 0.92721 0.0 
1.06356 0.834969 0.0 
0.956834 1.19321 0.0 
0.536963 0.0311109 0.0 
0.613288 -0.347949 0.0 
-0.0447026 -0.031994 0.0 
0.967475 -0.107234 0.0 
1.00435 0.119361 0.0 
0.020538 -0.0696923 0.0 
-0.0438667 -0.0904704 0.0 
1 0 0.0 
-0.020898 -0.0249925 0.0 
-0.0172442 -0.103294 0.0 
0.955165 -0.041074 0.0 
1.01846 -0.103126 0.0 
0.54034 0.308346 0.0 
1.61 0.404526 0.0 
-0.044971 -0.0136521 0.0 
0.479239 -0.0518512 0.0 
0.937607 -0.0449945 0.0 
1.31992 -0.217173 0.0 
-0.0319891 -0.0856475 0.0 
0.208535 -0.174521 0.0 
1.06782 -0.0658919 0.0 
-0.0924519 0.0572174 0.0 
1.18421 -0.339891 0.0 
1.09269 -0.12967 0.0 
1.12631 0 0.0 
1.5895 0.461322 0.0 
0.0011643 -0.349562 0.0 
1.51516 0.631078 0.0 
0.706425 -0.728086 0.0 
0.0188338 -0.0307478 0.0 
0.122581 -0.064416 0.0 
1.04259 -0.680262 0.0 
1.48747 -0.140995 0.0 
0.207303 -0.159917 0.0 
0.070443 -0.039461 0.0 
1.06745 -0.658104 0.0 
0.747142 -0.683706 0.0 
0.903746 0.77657 0.0 
1.12436 -0.094723 0.0 
0.350883 -0.193024 0.0 
1.23556 0 0.0 
0.855925 -0.76726 0.0 
0.985503 -0.0567373 0.0 
0.794885 -0.226047 0.0 
1.01503 -0.294189 0.0 
0.826558 -0.782573 0.0 
1.10515 0 0.0 
1.1502 -0.521329 0.0 
0.242392 -0.163357 0.0 
0.904674 -0.610729 0.0 
1.25461 -0.423416 0.0 
1.19067 -0.738519 0.0 
-0.0235539 -0.0137406 0.0 
1.09983 -0.280145 0.0 
1.03896 -0.226307 0.0 
1.18247 0.563914 0.0 
0.822498 -0.852212 0.0 
0.989563 -0.0651897 0.0 
0.903799 -0.0317062 0.0 
0.980756 -0.588262 0.0 
0.593748 -0.142134 0.0 
1.24009 -0.157887 0.0 
0.705511 0.702158 0.0 
0.545921 -0.65347 0.0 
1.30318 -0.322133 0.0 
0.313755 -0.178679 0.0 
-0.0033492 -0.0572269 0.0 
-0.0184214 -0.0255435 0.0 
1.38617 0.270756 0.0 
1.15306 -0.796556 0.0 
-0.043895 0.0284887 0.0 
1.19946 -0.551152 0.0 
0.4549 0.427656 0.0 
0.0273992 -0.0252368 0.0 
0.6636 -0.533801 0.0 
1.05601 -0.538458 0.0 
0.1429 0.0287019 0.0 
0.525821 0.588563 0.0 
1.46443 0.0907307 0.0 
-0.0263998 -0.0904648 0.0 
1.05561 -0.312662 0.0 
0.796638 -0.321059 0.0 
0.93449 -0.778915 0.0 
1.34603 -0.01711 0.0 
1.28085 0.505332 0.0 
1.15956 -0.16821 0.0 
0.443785 -0.341083 0.0 
0.809169 -0.423071 0.0 
1.18811 -0.09968 0.0 
0.960335 0.0180016 0.0 
0.955469 0.169229 0.0 
1.12358 -0.449019 0.0 
0.944147 -0.235704 0.0 
0.0201701 -0.0331015 0.0 
1.00358 -0.2455 0.0 
1.28439 -0.664954 0.0 
1.23056 -1.0828 0.0 
0.228756 -0.0127414 0.0 
1.15938 -0.616861 0.0 
0.872421 -0.522064 0.0 
1.22845 -0.50922 0.0 
0.917264 -0.377585 0.0 
1.06445 -0.903527 0.0 
0.97001 -0.624443 0.0 
1.64683 0.401711 0.0 
0.932835 -0.285408 0.0 
1.66795 -0.171793 0.0 
0.0315194 -0.0942482 0.0 
1.64182 0.29132 0.0 
1.70294 -0.298611 0.0 
1.3156 -0.639292 0.0 
0.282062 -0.181674 0.0 
0.111968 -0.178692 0.0 
0.473837 0.310562 0.0 
1.09496 0.0373721 0.0 
1.11295 -1.08123 0.0 
0.330799 0.487427 0.0 
1.85287 0.0296099 0.0 
1.13432 0 0.0 
0.992603 0.00342156 0.0 
1.38125 -0.749887 0.0 
0.421302 -0.246864 0.0 
0.849205 0 0.0 
0.996529 -0.155163 0.0 
0.557191 0.234531 0.0 
0.308547 0.370245 0.0 
0.174848 0.0359141 0.0 
0.651744 0.0367326 0.0 
0.372236 -0.012757 0.0 
1.19742 -0.0494383 0.0 
0.4126 -0.149344 0.0 
0.0916728 -0.0372755 0.0 
0.989221 0.877673 0.0 
0.319626 0.196845 0.0 
0.835934 -0.0299489 0.0 
0.14364 0.0345696 0.0 
0.0222838 -0.125957 0.0 
0.742225 -0.707142 0.0 
0.985174 -0.232465 0.0 
0.340522 0.0615575 0.0 
0.0767872 -0.0966884 0.0 
-0.0342501 -0.147966 0.0 
0.982238 -0.133558 0.0 
0.168517 -0.0699263 0.0 
0.552392 -0.102183 0.0 
0.32953 0.103336 0.0 
0.387071 -0.0983774 0.0 
1 0 0.0 
0.011895 -0.0436897 0.0 
0.615314 -0.2849 0.0 
1.10256 -0.048371 0.0 
0.139469 -0.0338749 0.0 
0.201185 0.0571102 0.0 
0.433996 0.643462 0.0 
0.295218 -0.171414 0.0 
0.353382 -0.173358 0.0 
0.54223 -0.461905 0.0 
0.626713 0.583697 0.0 
1.15949 0 0.0 
-0.0200299 -0.0573553 0.0 
0.0946548 -0.087747 0.0 
1.54043 0.436768 0.0 
1.10194 -0.597557 0.0 
1.19662 -0.0461537 0.0 
0.582119 0.0394247 0.0 
0.00544095 -0.018127 0.0 
1.48465 0.205747 0.0 
1.43617 -0.49669 0.0 
0.694001 0.0232635 0.0 
0.850088 -0.236367 0.0 
1.09221 -0.199048 0.0 
-0.0142229 0.0589713 0.0 
0.274478 -0.124978 0.0 
1.40936 -0.911853 0.0 
0.858439 0.768587 0.0 
0.525915 0.0621342 0.0 
0.0431531 -0.0176368 0.0 
0.781163 -0.162728 0.0 
0.0691214 -0.00222454 0.0 
0.395322 0.379605 0.0 
1.3917 -0.155867 0.0 
1.0025 -0.439207 0.0 
0.190891 0.00481914 0.0 
0.596603 0.592426 0.0 
0.0882218 0.00767466 0.0 
1.23997 -0.171075 0.0 
0.946815 0.37877 0.0 
0.957105 -0.334093 0.0 
1.55134 -0.176137 0.0 
0.814187 -0.0934009 0.0 
0.367055 0.0716302 0.0 
-0.0305018 -0.0327605 0.0 
1.22774 -0.238543 0.0 
0.906289 -0.250308 0.0 
0.317366 0.251993 0.0 
0.0430709 -0.0346519 0.0 
0.324516 0.327268 0.0 
0.772271 -0.2415 0.0 
-0.0450308 -0.055424 0.0 
0.341458 0.339991 0.0 
0.924232 0.0452095 0.0 
1.01686 0.0691241 0.0 
0.889633 -0.0368082 0.0 
0.908874 -0.116322 0.0 
-0.0162756 -0.0312386 0.0 
0.079614 -0.071911 0.0 
0.633691 0.63489 0.0 
0.141228 0.00848805 0.0 
0.618883 0.0902086 0.0 
0.0235917 -0.149137 0.0 
0.677328 0.477374 0.0 
1.0107 -0.0129027 0.0 
0.13726 -0.104773 0.0 
0.105441 -0.151281 0.0 
0.64187 0.00704979 0.0 
0.00605106 -0.0538985 0.0 
0.425985 0.0453984 0.0 
1.18021 -0.71381 0.0 
0.834692 -0.25462 0.0 
0.842008 -0.57628 0.0 
1.28592 0.0818923 0.0 
1.07338 -0.189247 0.0 
-0.188803 0.475535 0.0 
0.110356 -0.00542754 0.0 
1.22811 -0.151483 0.0 
-0.0248121 -0.0395154 0.0 
0.30719 0.0826814 0.0 
0.206782 -0.204275 0.0 
0.231043 -0.256858 0.0 
0.0462647 0.977555 0.0 
0.0709157 0.129252 0.0 
0.722373 0.174948 0.0 
0.884668 -0.448475 0.0 
0.802906 0.245821 0.0 
-0.0690368 0.0387642 0.0 
0.821243 -0.180646 0.0 
0.451183 -0.221258 0.0 
0.357007 0.470599 0.0 
0.287322 0.972746 0.0 
0.373253 -0.0343881 0.0 
-0.00113629 -0.18789 0.0 
0.64655 0.485468 0.0 
0.710917 -0.212169 0.0 
0.724564 -0.36474 0.0 
0.63747 -0.490969 0.0 
1.24824 -0.0817988 0.0 
0.52631 0.0377559 0.0 
0.0886153 0.250697 0.0 
0.146047 0.336115 0.0 
0.357439 0.0103271 0.0 
0.088823 -0.27032 0.0 
0.340149 0.484093 0.0 
-0.116248 0.0196923 0.0 
-0.233251 0.40144 0.0 
-0.00471993 -0.0753983 0.0 
-0.196734 0.175343 0.0 
0.802834 -0.439432 0.0 
1 0 0.0 
1.38557 -0.0828389 0.0 
0.0506394 -0.0629311 0.0 
0.158433 0.733442 0.0 
0.0461335 -0.0443271 0.0 
-0.00959391 -0.0378602 0.0 
0.00159577 -0.0469541 0.0 
0.0597008 -0.00176994 0.0 
1.39618 0.387845 0.0 
0.015119 0.165748 0.0 
1.00001 -0.0234787 0.0 
0.233787 -0.122525 0.0 
-0.0233047 -0.0163537 0.0 
1.13524 -0.51778 0.0 
0.217074 0.0652714 0.0 
0.0629473 -0.0112118 0.0 
1.49903 0.416666 0.0 
0.00317772 0.0337761 0.0 
0.186404 0.0158069 0.0 
0.00829869 -0.00186562 0.0 
0.988561 0.239699 0.0 
1.69629 -0.287118 0.0 
-0.02404 0.366109 0.0 
0.996167 -0.0847259 0.0 
0.115814 1.06167 0.0 
0.563362 0.634162 0.0 
-0.0136214 -0.0152299 0.0 
0.01926 -0.0673512 0.0 
1.58368 -0.225835 0.0 
-0.0153316 -0.0485927 0.0 
0.762454 -0.374551 0.0 
0.588584 1.28399 0.0 
0.543023 0.746061 0.0 
0.303461 -0.190069 0.0 
0.460797 0.680304 0.0 
-0.0261528 -0.00201005 0.0 
1.1399 -0.652921 0.0 
0.45014 -0.248983 0.0 
1.45162 -0.395502 0.0 
-0.195193 0.22663 0.0 
0.48204 -0.16771 0.0 
0.0546185 -0.213027 0.0 
0.0286909 0.507113 0.0 
-0.0649413 0.231109 0.0 
-0.0265499 0.0255425 0.0 
1.69022 -0.199337 0.0 
0.847666 0.79903 0.0 
0.908179 -0.242447 0.0 
0.407255 0.927874 0.0 
0.34227 0.484135 0.0 
0.0232328 0.0178056 0.0 
-0.0491483 0.237729 0.0 
0.464808 -0.187654 0.0 
1.02311 -0.38877 0.0 
0.042261 0.400999 0.0 
0.426489 0.0323347 0.0 
-0.00317216 -0.119525 0.0 
0.547533 -0.247005 0.0 
0.405025 0.25419 0.0 
0.893448 0.11035 0.0 
0.26817 0.135502 0.0 
0.785736 -0.0767779 0.0 
1.49715 -0.0890155 0.0 
1.45535 -0.215529 0.0 
0.0411341 0.430483 0.0 
0.0256713 -0.154046 0.0 
-0.0860808 0.69063 0.0 
1.49349 0.476849 0.0 
0.998168 -0.0433418 0.0 
-0.0460841 0.324836 0.0 
0.846509 -0.618913 0.0 
1.03434 -0.759956 0.0 
-0.0934654 0.0440847 0.0 
1 0 0.0 
-0.117158 0.151752 0.0 
-0.0404978 0.0983711 0.0 
0.00199885 0.0046023 0.0 
0.619262 0.466754 0.0 
0.388584 0.302575 0.0 
0.0542906 -0.00484784 0.0 
0.0445095 0.0876 0.0 
1.37004 -0.593644 0.0 
-0.229176 0.246927 0.0 
0.400245 0.63175 0.0 
0.805219 -0.297905 0.0 
0.0668 0.0519657 0.0 
0.0424194 0.0408601 0.0 
0.442281 -0.29576 0.0 
0.035666 0.0254431 0.0 
1.04553 0 0.0 
0.119157 1.13831 0.0 
-0.00279228 -0.0387384 0.0 
0.560047 -0.236642 0.0 
0.470058 -0.0752006 0.0 
1.4255 -0.213156 0.0 
-0.0446127 0.000978513 0.0 
0.603554 -0.599127 0.0 
1.66996 0.199241 0.0 
1.59651 -0.150049 0.0 
1.71949 0.309717 0.0 
0.468862 -0.205322 0.0 
0.528333 -0.527302 0.0 
0.942469 0.840072 0.0 
0.0149354 0.0439329 0.0 
1.25589 0.0782455 0.0 
1.24273 0.389366 0.0 
0.649714 0.557712 0.0 
0.301763 0.116825 0.0 
0.0108245 0.074504 0.0 
1.71779 0.406664 0.0 
0.0403772 0.0312924 0.0 
0.92139 -0.708416 0.0 
0.244676 0.0258762 0.0 
1 0 0.0 
0.497646 0.476574 0.0 
1.04571 -0.153048 0.0 
0.728188 -0.296484 0.0 
0.635109 -0.14225 0.0 
-0.0624166 0.0624484 0.0 
-0.168048 0.115059 0.0 
0.217864 1.15255 0.0 
0.0233802 -0.0191379 0.0 
0.0850847 0.600598 0.0 
-0.017688 -0.0957901 0.0 
-0.162251 -0.293038 0.0 
0.410131 -0.362824 0.0 
0.352646 0.033362 0.0 
0.0777441 0.0170164 0.0 
0.609631 0.112071 0.0 
-0.0245598 0.0411725 0.0 
0.254731 0.00290916 0.0 
-0.117005 -0.356476 0.0 
1.67703 -0.505747 0.0 
1.29949 -0.960732 0.0 
-0.0372566 -0.0191571 0.0 
1.43601 -0.231739 0.0 
0.0252023 0.0955741 0.0 
1.10209 0.386542 0.0 
-0.150667 0.176008 0.0 
0.182895 0.0601858 0.0 
0.49119 0.924386 0.0 
0.0048854 0.945982 0.0 
0.412222 -0.300113 0.0 
0.370124 0.555159 0.0 
-0.0808712 0.0752147 0.0 
-0.0698766 0.36758 0.0 
1.066 -0.692091 0.0 
-0.0223346 0.0967848 0.0 
0.26496 -0.206328 0.0 
0.0961137 0.0579592 0.0 
0.545537 0.696869 0.0 
-0.223688 0.626676 0.0 
0.103347 1.13538 0.0 
1.15643 0.0222478 0.0 
1.43053 0.223744 0.0 
0.358494 0.396684 0.0 
1.21518 0.0783854 0.0 
1.4479 0.445453 0.0 
-0.0272836 -0.0513621 0.0 
0.309534 0.471266 0.0 
1.4405 -0.965181 0.0 
0.331383 -0.0741971 0.0 
0.100648 -0.343043 0.0 
0.006735 0.051386 0.0 
0.00690467 0.0233409 0.0 
1.55637 0.477481 0.0 
-0.0216907 0.0699291 0.0 
0.0387801 0.000726764 0.0 
0.117825 0.49501 0.0 
0.386502 0.0405091 0.0 
-0.10923 0.811839 0.0 
0.483933 -0.321924 0.0 
0.214107 0.827255 0.0 
1.57914 -0.426343 0.0 
0.0560545 0.052884 0.0 
-0.00743923 -0.0478474 0.0 
0.0284165 -0.078817 0.0 
-0.0369632 0.0587027 0.0 
0.99556 0.821785 0.0 
1.36542 0.0657244 0.0 
-0.0751435 0.0364853 0.0 
0.559782 0.301886 0.0 
1.06842 -0.0264876 0.0 
-0.0382453 0.823629 0.0 
1.61425 -0.171496 0.0 
0.533636 1.07046 0.0 
0.272236 0.123952 0.0 
0.369787 0.6343 0.0 
-0.033309 -0.105459 0.0 
0.0137405 0.578242 0.0 
0.341263 -0.265176 0.0 
0.236858 -0.164217 0.0 
0.0408925 0.0964419 0.0 
1.06001 0.354365 0.0 
0.952123 0.38225 0.0 
0.0593276 -0.0803792 0.0 
-0.0810905 0.119875 0.0 
-0.00680708 0.081653 0.0 
1.49319 0.601767 0.0 
0.837446 -0.340164 0.0 
-0.203945 0.732228 0.0 
0.607521 0.657028 0.0 
0.352785 -0.247116 0.0 
0.684635 0.316746 0.0 
-0.0560925 0.0373704 0.0 
-0.037602 -0.0583768 0.0 
-0.119631 0.472208 0.0 
0.183118 -0.0486236 0.0 
0.29222 0.0268838 0.0 
0.121965 0.508289 0.0 
-0.152499 0.378341 0.0 
1.45925 -0.867408 0.0 
0.365045 -0.322041 0.0 
0.604352 0.355426 0.0 
-0.0099868 -0.147254 0.0 
1.5322 0.553309 0.0 
0.182597 -0.0432482 0.0 
-0.150587 0.278478 0.0 
0.398593 0.54192 0.0 
1.04387 0.807291 0.0 
-0.135667 0.115425 0.0 
0.267471 -0.141137 0.0 
0.261961 -0.0269227 0.0 
0.0851434 0.0844094 0.0 
-0.029062 -0.131132 0.0 
1.09946 0.0663596 0.0 
0.167433 0.77818 0.0 
1.44354 0.412124 0.0 
0.79927 -0.337174 0.0 
0.0699409 -0.0011128 0.0 
0.491647 1.02022 0.0 
0.0464296 -0.170982 0.0 
-0.0191595 0.609515 0.0 
0.16337 -0.0713492 0.0 
0.00927666 -0.00465257 0.0 
0.0259152 0.0360024 0.0 
0.980364 -0.0828511 0.0 
1.55779 -0.132886 0.0 
-0.0309746 -0.153607 0.0 
0.118311 -0.0839187 0.0 
1.24651 0 0.0 
0.0178096 0.130885 0.0 
1.04721 0.902301 0.0 
-0.00455722 0.118365 0.0 
1.11798 0 0.0 
0.295714 0.0346456 0.0 
0.350859 -0.334058 0.0 
-0.260009 0.263876 0.0 
0.0679024 0.0905605 0.0 
0.155704 0.06179 0.0 
0.254461 -0.145541 0.0 
0.260874 0.0726818 0.0 
0.859093 -0.479312 0.0 
0.611213 0.192814 0.0 
1.29721 -0.0567227 0.0 
0.171172 -0.0928416 0.0 
0.293485 0.0715217 0.0 
0.63523 0.469511 0.0 