<VTKFile type="UnstructuredGrid" version="0.1" byte_order="LittleEndian">
  <UnstructuredGrid>
    <Piece NumberOfPoints="19390" NumberOfCells="38702">
      <Points>
        <DataArray type = "Float64" NumberOfComponents="3" format="ascii">
4.12515 3.00074 0.0 
3.25714 7.43272 0.0 
0 6.9062 0.0 
4.80119 7.05526 0.0 
0.611517 6.83483 0.0 
3.30634 4.66345 0.0 
3.6549 4.62095 0.0 
7.6983 4.32006 0.0 
3.02355 4.4821 0.0 
4.02555 2.99911 0.0 
3.73795 4.79344 0.0 
3.45121 4.75788 0.0 
3.58055 4.80434 0.0 
4.09041 2.99471 0.0 
4.11783 2.99507 0.0 
0.580012 7.25893 0.0 
3.07677 4.37983 0.0 
5.33439 2.94571 0.0 
3.09594 4.43187 0.0 
1.51001 8 0.0 
4.12578 2.99402 0.0 
3.46257 5.24017 0.0 
3.49805 4.86799 0.0 
3.6014 4.79238 0.0 
4.03121 5.27296 0.0 
2.81546 7.00897 0.0 
4.34542 2.94187 0.0 
4.12099 3.00447 0.0 
4.56369 5.95778 0.0 
3.12367 4.48997 0.0 
3.80002 5.33673 0.0 
4.29003 5.99052 0.0 
3.5176 5.40838 0.0 
4.11755 3.00491 0.0 
0.783258 8 0.0 
4.24198 5.49828 0.0 
3.57685 4.63369 0.0 
3.40541 4.6771 0.0 
3.08399 4.39438 0.0 
3.4348 4.74267 0.0 
3.47591 4.82435 0.0 
3.54849 4.7775 0.0 
3.09193 4.41396 0.0 
3.66651 4.74506 0.0 
3.52289 4.63361 0.0 
4.94887 6.57474 0.0 
3.10387 4.4568 0.0 
3.49724 4.72527 0.0 
3.34692 4.70251 0.0 
4.33494 5.50565 0.0 
4.3595 5.62128 0.0 
3.16822 4.57598 0.0 
3.56496 4.74053 0.0 
7.95248 4.27164 0.0 
4.31358 2.95435 0.0 
3.02717 4.23597 0.0 
3.95543 4.95315 0.0 
3.62609 4.80409 0.0 
4.37933 6.3135 0.0 
3.09177 4.41946 0.0 
4.01271 3.00702 0.0 
3.06463 4.28193 0.0 
3.17271 4.62423 0.0 
3.43987 4.70009 0.0 
4.41025 5.79957 0.0 
3.11289 4.45419 0.0 
3.09709 5.24102 0.0 
3.0962 4.31813 0.0 
4.19542 2.99704 0.0 
3.30186 5.37082 0.0 
4.29059 2.97488 0.0 
3.47636 4.92172 0.0 
3.94844 4.88903 0.0 
3.21803 4.57839 0.0 
3.09161 4.32594 0.0 
4.14747 2.99232 0.0 
3.35133 4.60101 0.0 
3.60717 4.74403 0.0 
3.31713 4.59682 0.0 
3.58281 4.74342 0.0 
3.36292 4.64193 0.0 
3.4535 4.62435 0.0 
4.20465 5.79676 0.0 
4.05283 2.99528 0.0 
4.13009 2.99283 0.0 
4.10328 2.99453 0.0 
3.09179 4.40786 0.0 
4.35852 2.93868 0.0 
2.23676 8 0.0 
3.79601 4.71379 0.0 
3.34688 4.62891 0.0 
3.81168 4.90137 0.0 
3.12139 4.47724 0.0 
3.30523 4.59293 0.0 
3.98206 2.98817 0.0 
4.0318 3.00353 0.0 
3.10276 4.44554 0.0 
3.83402 5.71037 0.0 
3.63227 4.74064 0.0 
3.75588 5.05794 0.0 
3.39813 4.61581 0.0 
3.3273 4.78915 0.0 
4.04137 2.99905 0.0 
3.50006 4.75774 0.0 
3.9018 6.59874 0.0 
3.43689 4.76039 0.0 
3.91818 3.02018 0.0 
3.68773 4.74706 0.0 
3.75676 4.72865 0.0 
4.00159 3.01144 0.0 
3.61795 4.7469 0.0 
3.20533 5.92651 0.0 
1.85766 6.96703 0.0 
3.33307 4.59547 0.0 
3.45843 4.98957 0.0 
3.31973 4.60434 0.0 
4.04568 4.98123 0.0 
3.60758 4.61173 0.0 
3.6593 4.60957 0.0 
3.47773 4.60957 0.0 
3.02631 4.7382 0.0 
3.15418 5.04245 0.0 
3.3555 4.54988 0.0 
2.82623 5.88785 0.0 
3.43278 4.87337 0.0 
3.21952 4.58522 0.0 
4.60222 5.69526 0.0 
3.11555 4.46696 0.0 
3.66939 4.6025 0.0 
7.51793 4.06641 0.0 
3.63121 4.6102 0.0 
3.3988 4.57055 0.0 
3.25769 4.83975 0.0 
3.10557 4.53028 0.0 
3.53082 4.60009 0.0 
3.51416 4.59765 0.0 
3.28183 4.67101 0.0 
3.60143 4.99162 0.0 
2.97741 4.28192 0.0 
3.59814 4.60769 0.0 
3.6389 5.58015 0.0 
3.53527 4.61806 0.0 
4.03704 5.71784 0.0 
3.08265 4.4134 0.0 
3.07287 4.29922 0.0 
3.46604 4.75729 0.0 
3.06464 4.89342 0.0 
3.54657 4.59923 0.0 
3.93303 5.17297 0.0 
3.98548 3.00864 0.0 
3.12987 4.50315 0.0 
3.29336 5.00242 0.0 
3.89041 5.35737 0.0 
3.56598 4.78103 0.0 
4.33253 2.941 0.0 
3.10134 4.4611 0.0 
3.58936 4.62753 0.0 
3.63901 4.59703 0.0 
5.27064 2.91621 0.0 
3.52379 4.59224 0.0 
3.12377 4.52285 0.0 
3.89309 5.02852 0.0 
3.95443 3.01327 0.0 
3.10673 4.47339 0.0 
4.00922 5.139 0.0 
3.62372 4.60752 0.0 
3.41726 4.73976 0.0 
3.66762 4.88288 0.0 
4.3489 2.93292 0.0 
3.54482 4.60708 0.0 
3.29886 4.91312 0.0 
3.74066 4.52695 0.0 
3.09362 4.46676 0.0 
3.23129 4.60972 0.0 
3.45294 4.78922 0.0 
3.18041 4.54598 0.0 
3.40315 5.04315 0.0 
6.9885 3.65992 0.0 
3.51572 5.04362 0.0 
3.45865 4.74919 0.0 
3.14098 4.56429 0.0 
3.68573 4.58265 0.0 
3.00185 4.25847 0.0 
3.03713 5.55644 0.0 
3.15827 4.52416 0.0 
3.31741 4.69541 0.0 
4.29148 2.95243 0.0 
3.4228 4.73553 0.0 
3.56511 4.60477 0.0 
3.88295 4.88204 0.0 
3.17129 4.5499 0.0 
3.10598 4.45408 0.0 
3.13555 4.51558 0.0 
3.02867 4.32583 0.0 
3.38501 4.72102 0.0 
3.07624 4.28545 0.0 
3.0566 4.62974 0.0 
3.86993 5.27639 0.0 
3.37011 4.70405 0.0 
4.11329 2.99437 0.0 
3.06848 4.39366 0.0 
3.36315 4.70538 0.0 
3.82012 5.08152 0.0 
3.42749 4.58294 0.0 
3.33569 4.54471 0.0 
3.0237 4.29441 0.0 
4.08811 5.31766 0.0 
3.09189 4.4573 0.0 
3.07541 4.51439 0.0 
3.69839 4.79325 0.0 
4.15415 2.99474 0.0 
3.40531 4.72974 0.0 
3.11163 4.46791 0.0 
3.06415 4.36127 0.0 
3.28657 4.65767 0.0 
3.66497 4.7995 0.0 
3.69081 5.38679 0.0 
4.217 2.98935 0.0 
3.31061 4.67992 0.0 
3.36747 6.81263 0.0 
3.38553 4.73822 0.0 
3.25107 4.60938 0.0 
4.13254 2.99471 0.0 
4.26455 2.96254 0.0 
3.93574 5.43104 0.0 
4.86368 6.12334 0.0 
3.14787 4.5485 0.0 
3.5846 5.86185 0.0 
8.74329 0.635086 0.0 
3.82807 7.20227 0.0 
3.61235 4.82485 0.0 
3.73222 4.91609 0.0 
4.07873 2.99447 0.0 
3.69288 4.56389 0.0 
3.54332 4.62348 0.0 
3.07518 4.38593 0.0 
3.35201 4.86306 0.0 
3.06328 4.37251 0.0 
3.61202 4.60386 0.0 
3.98331 5.33569 0.0 
3.65989 4.59283 0.0 
3.08406 4.3085 0.0 
3.41454 4.7281 0.0 
3.92537 5.07198 0.0 
3.03911 4.3582 0.0 
3.73227 4.8426 0.0 
3.05005 4.34979 0.0 
3.10213 4.48381 0.0 
5.35477 6.94941 0.0 
3.48293 4.79285 0.0 
4.25724 2.97529 0.0 
5.3183 6.18029 0.0 
3.8489 4.8348 0.0 
3.62733 5.24132 0.0 
3.04561 4.22731 0.0 
3.0317 4.21474 0.0 
3.55575 5.13711 0.0 
3.67815 4.57938 0.0 
3.65063 4.58711 0.0 
2.91498 6.3622 0.0 
4.06736 2.99229 0.0 
3.76061 4.82355 0.0 
3.62478 4.60004 0.0 
4.01385 2.99601 0.0 
3.06004 4.25512 0.0 
3.65654 4.61597 0.0 
3.33666 4.68555 0.0 
3.26854 4.63526 0.0 
4.30919 2.92702 0.0 
3.45022 4.58262 0.0 
3.647 4.61106 0.0 
3.51608 4.79331 0.0 
3.14728 4.5146 0.0 
3.57162 4.79042 0.0 
3.3511 4.72136 0.0 
3.67733 4.81509 0.0 
7.31971 1.27008 0.0 
4.83672 5.82452 0.0 
3.35049 4.691 0.0 
3.29621 4.70201 0.0 
3.04238 4.31968 0.0 
3.40645 4.57953 0.0 
3.64011 4.60328 0.0 
3.38121 5.61824 0.0 
3.60752 5.05889 0.0 
1.79299 5.79592 0.0 
3.68468 8 0.0 
3.48642 4.60567 0.0 
3.88911 3.02399 0.0 
1.23485 7.02559 0.0 
3.11521 4.46319 0.0 
1.29772 5.98621 0.0 
3.05544 4.37364 0.0 
3.44808 4.74947 0.0 
3.75287 5.15684 0.0 
3.00041 4.37661 0.0 
3.17215 4.56583 0.0 
4.52388 5.55531 0.0 
3.39649 4.73278 0.0 
3.60223 4.92396 0.0 
3.66027 4.94664 0.0 
3.68655 5.00963 0.0 
3.10402 4.58187 0.0 
2.35533 6.6068 0.0 
3.4349 4.77122 0.0 
3.56705 4.62211 0.0 
3.34781 4.53993 0.0 
3.5292 4.76811 0.0 
3.64337 4.84655 0.0 
3.62107 4.61982 0.0 
2.71571 7.56743 0.0 
4.06321 5.21545 0.0 
3.58701 4.6239 0.0 
4.93799 7.48835 0.0 
3.20692 4.57109 0.0 
4.36822 2.93202 0.0 
3.31238 5.15534 0.0 
3.63636 4.62562 0.0 
4.175 2.9992 0.0 
3.73386 4.54201 0.0 
3.8296 5.0108 0.0 
3.28282 4.73289 0.0 
3.83858 4.94503 0.0 
3.70195 4.56686 0.0 
3.14795 4.80886 0.0 
3.77609 4.97438 0.0 
3.50408 4.76206 0.0 
3.35066 4.74687 0.0 
3.05896 4.33987 0.0 
3.01539 4.34484 0.0 
3.58436 4.6191 0.0 
3.32113 4.67972 0.0 
2.97804 4.45696 0.0 
3.54644 4.89479 0.0 
3.51978 4.78239 0.0 
2.28212 7.272 0.0 
3.62551 4.61538 0.0 
3.85826 5.12223 0.0 
3.23323 4.59354 0.0 
3.42415 4.58917 0.0 
3.72143 4.55873 0.0 
3.68228 4.59742 0.0 
3.11396 4.45895 0.0 
3.24305 4.62602 0.0 
3.16408 4.53987 0.0 
3.09516 4.44241 0.0 
3.18026 4.56316 0.0 
3.13427 4.49605 0.0 
3.95805 6.05953 0.0 
3.67439 4.59446 0.0 
3.00494 4.30469 0.0 
2.98372 4.32885 0.0 
4.02723 5.42444 0.0 
3.12153 4.50395 0.0 
3.58203 4.60831 0.0 
3.09236 4.44528 0.0 
3.06413 4.41958 0.0 
3.5301 4.61205 0.0 
3.21584 4.7475 0.0 
3.04579 4.45441 0.0 
3.6369 4.6129 0.0 
3.47553 4.59907 0.0 
3.54724 4.79713 0.0 
3.59095 4.61336 0.0 
4.05186 2.98997 0.0 
3.48736 6.27086 0.0 
3.05771 4.39503 0.0 
3.14824 4.52752 0.0 
2.93157 4.69061 0.0 
3.50009 4.59311 0.0 
3.9715 5.00855 0.0 
3.11293 4.48684 0.0 
3.19 4.59212 0.0 
3.55076 4.82731 0.0 
3.59812 4.60119 0.0 
4.06905 2.99656 0.0 
4.3634 6.86852 0.0 
2.9429 4.31067 0.0 
3.1191 4.71757 0.0 
3.64568 4.60591 0.0 
3.60583 4.62044 0.0 
3.54394 4.77181 0.0 
3.82553 5.22235 0.0 
3.65917 4.60293 0.0 
3.19005 4.60913 0.0 
1.71185 7.48178 0.0 
3.3966 4.72034 0.0 
3.5296 4.606 0.0 
3.4124 4.74677 0.0 
4.32115 7.4666 0.0 
2.96662 4.4101 0.0 
3.64664 4.61617 0.0 
3.45018 4.59293 0.0 
3.14211 4.51522 0.0 
3.49737 4.60027 0.0 
3.63404 4.6184 0.0 
3.15506 4.52644 0.0 
3.47452 4.59112 0.0 
3.05214 4.43067 0.0 
3.47797 4.77169 0.0 
3.67006 5.11445 0.0 
3.99789 5.06214 0.0 
4.38675 8 0.0 
3.61627 4.61469 0.0 
3.48428 4.76183 0.0 
5.61376 6.53105 0.0 
5.0801 8 0.0 
3.07495 4.4109 0.0 
3.5091 4.60889 0.0 
3.21845 4.61883 0.0 
3.0882 4.4282 0.0 
3.54711 4.61468 0.0 
3.25235 4.64439 0.0 
3.06399 4.47993 0.0 
3.56249 4.61178 0.0 
3.07782 4.42429 0.0 
3.38 4.71232 0.0 
3.23189 4.64842 0.0 
3.57467 4.61562 0.0 
3.37444 4.55837 0.0 
3.20279 4.91667 0.0 
3.55855 4.61886 0.0 
3.01889 4.42232 0.0 
6.65345 1.8771 0.0 
3.51587 4.60294 0.0 
3.07414 4.44344 0.0 
3.529 4.77458 0.0 
4.13647 5.37607 0.0 
3.46229 4.60268 0.0 
4.1316 3.00181 0.0 
2.96072 8 0.0 
3.37391 4.56433 0.0 
3.26315 4.62415 0.0 
3.5122 4.61633 0.0 
3.38254 4.57187 0.0 
3.55185 4.62779 0.0 
3.69702 4.8343 0.0 
3.93056 5.28038 0.0 
2.9623 4.36121 0.0 
3.07046 4.45723 0.0 
3.33897 4.52866 0.0 
3.60437 4.62514 0.0 
3.2434 4.61236 0.0 
3.49503 4.61165 0.0 
3.14874 4.66355 0.0 
3.36108 4.56348 0.0 
3.15583 4.54146 0.0 
3.39847 4.58266 0.0 
3.35083 4.55517 0.0 
3.47614 4.75371 0.0 
3.78192 4.80376 0.0 
3.43825 4.59836 0.0 
3.16799 4.53777 0.0 
3.116 4.47744 0.0 
3.56908 4.62971 0.0 
2.95439 5.0461 0.0 
3.95379 5.54992 0.0 
3.49151 4.61571 0.0 
3.52028 4.62282 0.0 
3.32807 4.5337 0.0 
3.39655 4.77884 0.0 
3.22119 4.6806 0.0 
3.07695 4.39652 0.0 
3.37344 4.72107 0.0 
3.52453 4.62985 0.0 
1.87748 5.27818 0.0 
3.40565 4.81944 0.0 
3.46575 4.6166 0.0 
4.08336 2.99095 0.0 
3.5039 4.77156 0.0 
3.45552 4.61194 0.0 
3.47277 4.61374 0.0 
[...]
<PointData>
  <DataArray type = "Float64" Name="Vitesse" NumberOfComponents="3" format="ascii">
0.026058 -0.0126336 0.0 
1.15835 0.0428518 0.0 
1 0 0.0 
1.2442 -0.00277492 0.0 
1.00989 0.0232518 0.0 
1.08626 0.786491 0.0 
0.0389773 0.103924 0.0 
0.455692 0.823626 0.0 
0.609811 0.789124 0.0 
0.0270381 -0.132821 0.0 
1.29986 -0.203335 0.0 
1.65409 0.667118 0.0 
1.68059 0.206014 0.0 
0.0573609 -0.0776342 0.0 
0.0580619 -0.0275687 0.0 
1.00212 0.0124659 0.0 
0.122067 0.462569 0.0 
0.173863 0.163958 0.0 
0.201569 0.626612 0.0 
1.03723 0 0.0 
0.0645743 -0.0109548 0.0 
1.29001 0.368764 0.0 
1.53608 0.417363 0.0 
1.65601 0.117732 0.0 
1.29231 0.503657 0.0 
1.13515 0.0775273 0.0 
0.077454 0.220921 0.0 
0.00564912 -0.0220693 0.0 
1.44649 0.00372593 0.0 
0.535543 0.944916 0.0 
1.32601 0.387709 0.0 
1.42211 0.102485 0.0 
1.28833 0.335677 0.0 
0.00284464 -0.0293882 0.0 
1.01058 0 0.0 
1.63657 0.271008 0.0 
0.00513783 0.0601825 0.0 
4.00922e-42 1.76988e-42 0.0 
0.119648 0.462814 0.0 
1.47225 0.673633 0.0 
1.59803 0.508505 0.0 
1.61929 0.256047 0.0 
0.121825 0.495799 0.0 
-1.75186e-19 2.23011e-20 0.0 
-0.00310381 0.0472359 0.0 
1.30498 -0.0215791 0.0 
0.341601 0.804298 0.0 
-3.43214e-24 -1.30691e-24 0.0 
1.33427 0.870921 0.0 
1.69317 0.18571 0.0 
1.63111 0.118639 0.0 
1.00328 0.95341 0.0 
-2.59814e-20 -1.35711e-21 0.0 
0.566019 0.802657 0.0 
0.0804963 0.238825 0.0 
0.183432 0.305539 0.0 
0.91953 0.190536 0.0 
1.59536 0.0637854 0.0 
1.35637 0.0449413 0.0 
0.157465 0.559431 0.0 
-0.00982673 -0.133848 0.0 
0.110068 0.223891 0.0 
1.05673 0.887273 0.0 
2.85971e-38 9.96997e-39 0.0 
1.52263 0.0767495 0.0 
0.158043 0.563507 0.0 
1.18132 0.380939 0.0 
0.0516861 0.123974 0.0 
0.0322169 0.134742 0.0 
1.24016 0.345295 0.0 
0.0388008 0.247754 0.0 
1.45287 0.428981 0.0 
0.862577 0.085785 0.0 
0.524125 0.462116 0.0 
0.0482391 0.145127 0.0 
0.0729426 0.0361474 0.0 
-0.00580213 0.0119224 0.0 
-6.14097e-20 -7.10109e-22 0.0 
-1.51303e-05 1.50501e-05 0.0 
-6.84925e-20 -2.42657e-21 0.0 
1.02631e-53 5.52874e-54 0.0 
-0.00361262 0.0423842 0.0 
1.49186 0.153918 0.0 
0.0486124 -0.119634 0.0 
0.0717601 -0.00176728 0.0 
0.0600066 -0.055819 0.0 
0.0985456 0.439352 0.0 
0.0732007 0.205234 0.0 
1.07858 0 0.0 
0.00665729 -0.00264583 0.0 
2.57682e-55 1.37371e-55 0.0 
1.13246 0.047014 0.0 
0.361901 0.745923 0.0 
-0.000277773 0.000500674 0.0 
0.119807 -0.144467 0.0 
0.00224843 -0.130432 0.0 
0.233759 0.669828 0.0 
1.38018 0.260596 0.0 
-3.82307e-20 1.25074e-22 0.0 
1.23515 0.281565 0.0 
-0.0075406 0.024495 0.0 
1.37448 0.722223 0.0 
0.0255022 -0.126543 0.0 
0.966955 0.330098 0.0 
1.26999 0.0866357 0.0 
1.64048 0.701325 0.0 
-0.0149149 -0.11214 0.0 
0.0125415 -0.0028381 0.0 
0.000460146 -0.000130297 0.0 
-0.0240432 -0.133917 0.0 
-1.30608e-19 -3.21166e-22 0.0 
1.21141 0.222081 0.0 
1.05946 0.0577863 0.0 
-0.00461689 0.005696 0.0 
1.38399 0.417011 0.0 
-2.67232e-07 3.12573e-07 0.0 
0.83672 0.347074 0.0 
0.0283721 0.0646006 0.0 
0.0435653 0.102164 0.0 
-0.00737646 0.0386422 0.0 
0.997809 0.635869 0.0 
1.19253 0.470681 0.0 
0.000644195 0.0199825 0.0 
1.14379 0.206859 0.0 
1.47522 0.514657 0.0 
0.716608 0.634528 0.0 
1.57317 -0.0452504 0.0 
0.305221 0.74476 0.0 
0.0424659 0.0967955 0.0 
0.524286 0.928956 0.0 
0.0475256 0.0729189 0.0 
-0.000332456 0.0273445 0.0 
1.26841 0.645012 0.0 
0.801685 0.972652 0.0 
0.0129329 0.0494157 0.0 
0.00746605 0.0455388 0.0 
1.22755 0.889046 0.0 
1.37338 0.300287 0.0 
0.30694 0.417732 0.0 
0.0234006 0.0674418 0.0 
1.31598 0.306203 0.0 
9.88316e-05 0.0477805 0.0 
1.45303 0.238173 0.0 
0.213373 0.644834 0.0 
0.0920692 0.202145 0.0 
1.549 0.584837 0.0 
1.10566 0.548434 0.0 
0.0163556 0.0578309 0.0 
1.1636 0.410494 0.0 
-0.00617701 -0.132403 0.0 
0.649153 0.97355 0.0 
1.28266 0.487383 0.0 
1.35733 0.414248 0.0 
1.58724 0.202083 0.0 
0.101036 0.221557 0.0 
0.412039 0.873827 0.0 
0.0147556 0.0559217 0.0 
0.0542042 0.0829304 0.0 
0.25683 0.259668 0.0 
0.0140817 0.0499546 0.0 
0.799389 1.01195 0.0 
1.07204 0.254117 0.0 
-0.00976415 -0.12284 0.0 
0.489105 0.925898 0.0 
1.06939 0.442408 0.0 
0.0431889 0.0717331 0.0 
1.51017 0.781999 0.0 
1.41353 0.118162 0.0 
0.104878 0.206537 0.0 
0.0105461 0.0558603 0.0 
1.30394 0.558625 0.0 
0.0808636 0.0793873 0.0 
0.501378 0.939652 0.0 
1.0246 0.859384 0.0 
1.63497 0.611652 0.0 
0.571271 0.55804 0.0 
1.32756 0.426598 0.0 
0.633038 0.719927 0.0 
1.35637 0.372399 0.0 
1.36223 0.535774 0.0 
0.950715 0.956563 0.0 
0.0646642 0.100041 0.0 
0.243026 0.376839 0.0 
1.17495 0.289227 0.0 
0.544431 0.623656 0.0 
1.31215 0.876877 0.0 
0.125393 0.217078 0.0 
1.40512 0.737025 0.0 
0.0133974 0.066382 0.0 
0.972447 0.0202995 0.0 
0.855247 0.860184 0.0 
0.28079 0.731019 0.0 
0.759453 1.00337 0.0 
0.234722 0.526333 0.0 
1.40801 0.805266 0.0 
0.0922308 0.16501 0.0 
0.918512 0.762133 0.0 
1.29329 0.419522 0.0 
1.21257 0.764867 0.0 
0.0621547 -0.0367804 0.0 
0.226608 0.647864 0.0 
1.29529 0.820601 0.0 
1.18508 0.301154 0.0 
-0.00250596 0.0298551 0.0 
-0.00253277 0.0176137 0.0 
0.217039 0.446884 0.0 
1.40566 0.510179 0.0 
0.445221 0.902114 0.0 
0.711799 0.908086 0.0 
1.38235 -0.14244 0.0 
0.0580002 0.0510398 0.0 
1.42931 0.778799 0.0 
0.387091 0.838861 0.0 
0.149783 0.497912 0.0 
1.16962 0.869324 0.0 
1.50729 -0.0517206 0.0 
1.31719 0.358443 0.0 
0.0516611 0.167464 0.0 
1.23259 0.864532 0.0 
1.19049 0.0880519 0.0 
1.49728 0.809655 0.0 
0.633857 0.542546 0.0 
0.0605897 0.00368647 0.0 
0.12185 0.204965 0.0 
1.41505 0.392982 0.0 
1.37297 -0.0417355 0.0 
0.928736 0.987785 0.0 
1.28606 0.231792 0.0 
0.985514 0.066783 0.0 
1.20244 0.0428932 0.0 
1.59132 0.141059 0.0 
1.2799 0.11189 0.0 
0.0572113 -0.0935861 0.0 
0.0706287 0.098338 0.0 
-0.00392639 0.0535151 0.0 
0.154226 0.526993 0.0 
1.38883 0.599612 0.0 
0.184746 0.573089 0.0 
0.0350354 0.0718338 0.0 
1.37054 0.458256 0.0 
0.0541551 0.0924065 0.0 
0.0714081 0.157045 0.0 
1.20464 0.671992 0.0 
1.06815 0.319794 0.0 
0.250932 0.615109 0.0 
1.31539 -0.0451381 0.0 
0.196368 0.550745 0.0 
0.594629 0.99482 0.0 
1.2448 -0.0254398 0.0 
1.67849 0.538596 0.0 
0.0741773 0.212035 0.0 
1.31195 -0.0905338 0.0 
1.01069 -0.0991373 0.0 
1.29908 0.356756 0.0 
0.148185 0.227697 0.0 
0.174523 0.253683 0.0 
1.31051 0.356153 0.0 
0.0654018 0.0975144 0.0 
0.059162 0.0880592 0.0 
1.15561 0.142402 0.0 
0.0699542 -0.10628 0.0 
1.23633 -0.118517 0.0 
0.0461632 0.0776128 0.0 
0.0482012 -0.136885 0.0 
0.120271 0.204455 0.0 
0.0412901 0.104602 0.0 
1.16561 0.807541 0.0 
1.02758 0.821074 0.0 
0.219786 0.179019 0.0 
0.00099951 0.0345572 0.0 
0.0485555 0.0898266 0.0 
1.73138 0.419114 0.0 
0.592927 0.733252 0.0 
1.71317 0.21947 0.0 
1.41412 0.856255 0.0 
1.48383 -0.0360186 0.0 
1.22594 0.184579 0.0 
1.45973 -0.0895702 0.0 
1.1314 0.776363 0.0 
1.29688 0.862412 0.0 
0.184611 0.474105 0.0 
-0.00316676 0.0280457 0.0 
0.0529179 0.0821149 0.0 
1.2539 0.286971 0.0 
1.33517 0.327209 0.0 
1.03489 0.131287 0.0 
1.17327 0 0.0 
-0.00439035 0.0404688 0.0 
-0.00999749 -0.106566 0.0 
1.0274 0.0420286 0.0 
0.250294 0.684505 0.0 
1.01792 0.0795949 0.0 
0.226273 0.621002 0.0 
1.55198 0.644067 0.0 
1.25737 0.350393 0.0 
0.375509 0.615907 0.0 
0.973716 0.94663 0.0 
1.6734 -0.015508 0.0 
1.4762 0.801481 0.0 
1.43336 0.258658 0.0 
1.35683 0.213812 0.0 
1.30096 0.256904 0.0 
0.906401 0.879967 0.0 
1.0996 0.10531 0.0 
1.62283 0.680518 0.0 
0.00363034 0.0646139 0.0 
0.000128825 0.0203718 0.0 
1.34515 0.27467 0.0 
1.4987 0.0954146 0.0 
0.0337919 0.0613419 0.0 
1.11213 0.0270301 0.0 
1.17781 0.517925 0.0 
0.0136668 0.0599446 0.0 
1.21943 -0.0042871 0.0 
0.604861 0.544555 0.0 
0.0845216 0.185444 0.0 
1.26194 0.4076 0.0 
0.0350624 0.0726262 0.0 
0.0300668 0.0962656 0.0 
0.0723965 0.0818795 0.0 
1.14083 0.222266 0.0 
1.29416 0.80375 0.0 
1.09513 0.126566 0.0 
0.0683235 0.0991737 0.0 
1.14008 0.648678 0.0 
1.20153 0.18101 0.0 
1.24671 0.37734 0.0 
1.42564 0.80354 0.0 
0.140885 0.439583 0.0 
0.298015 0.571789 0.0 
0.0123083 0.0629408 0.0 
1.21112 0.846962 0.0 
0.571371 0.676425 0.0 
1.4989 0.332841 0.0 
1.72536 0.402709 0.0 
1.08166 0.0476099 0.0 
0.0401725 0.0667504 0.0 
1.17019 0.344205 0.0 
0.593034 0.508113 0.0 
-0.00450423 0.028748 0.0 
0.0631528 0.0894925 0.0 
0.0490853 0.0954416 0.0 
0.203734 0.631582 0.0 
1.08741 0.882601 0.0 
0.815587 0.852417 0.0 
0.296784 0.758867 0.0 
0.922745 0.887116 0.0 
0.287321 0.501234 0.0 
1.34654 0.147849 0.0 
0.0501299 0.0961722 0.0 
0.271934 0.47621 0.0 
0.339826 0.507378 0.0 
1.47506 0.410735 0.0 
0.70886 1.01904 0.0 
0.0141836 0.0687071 0.0 
0.347433 0.815704 0.0 
0.351252 0.798451 0.0 
0.00440038 0.0453718 0.0 
1.20226 0.756633 0.0 
0.514262 0.821309 0.0 
0.0468151 0.0769391 0.0 
-0.00260097 0.0394762 0.0 
1.71624 0.311335 0.0 
0.0165625 0.0645709 0.0 
0.0846688 -0.120203 0.0 
1.24822 0.16238 0.0 
0.286706 0.713061 0.0 
0.805226 0.948946 0.0 
0.906197 0.590447 0.0 
0.00446013 0.0452354 0.0 
0.953529 0.278198 0.0 
0.564601 0.969491 0.0 
1.04408 0.936383 0.0 
1.63349 0.307698 0.0 
0.0267939 0.0716604 0.0 
0.0424738 -0.105266 0.0 
1.25871 0.0315929 0.0 
0.38843 0.442637 0.0 
1.07042 0.725594 0.0 
0.0522971 0.086804 0.0 
0.0246336 0.0583272 0.0 
1.41992 0.231191 0.0 
1.26251 0.39191 0.0 
0.0472966 0.0973591 0.0 
1.06477 0.917619 0.0 
1.04583 0.0295253 0.0 
1.26921 0.715468 0.0 
0.00862341 0.0468589 0.0 
1.5552 0.770787 0.0 
1.21532 0.015403 0.0 
0.490486 0.614404 0.0 
0.0437614 0.0903641 0.0 
-0.00176811 0.0331694 0.0 
0.673909 0.859884 0.0 
0.000252157 0.0428029 0.0 
0.0402151 0.0728281 0.0 
0.698638 0.788772 0.0 
0.00107825 0.0399587 0.0 
0.420184 0.806362 0.0 
1.68877 0.585815 0.0 
1.29509 0.332477 0.0 
0.982179 0.365448 0.0 
1.20277 0 0.0 
0.0339665 0.063551 0.0 
1.50645 0.523384 0.0 
1.2515 -0.0669088 0.0 
1.20073 0 0.0 
0.260087 0.705875 0.0 
0.000847462 0.0407813 0.0 
1.10402 0.916269 0.0 
0.25569 0.708179 0.0 
0.00469743 0.0568276 0.0 
1.15254 0.901348 0.0 
0.584345 0.8813 0.0 
0.00787354 0.0648029 0.0 
0.310917 0.776282 0.0 
1.29931 0.770708 0.0 
1.15336 0.898126 0.0 
0.00786376 0.0665848 0.0 
0.00170102 0.0230539 0.0 
1.21815 0.560747 0.0 
0.0022384 0.0634373 0.0 
0.444982 0.723842 0.0 
1.44483 0.207321 0.0 
0.00553618 0.0437402 0.0 
0.429376 0.869195 0.0 
1.62383 0.332379 0.0 
1.55691 0.45002 0.0 
-0.00471686 0.0365111 0.0 
0.0208612 0.00153558 0.0 
1.12134 0 0.0 
0.000967444 0.0225638 0.0 
0.843313 0.693646 0.0 
-0.00136456 0.0386255 0.0 
-0.000322776 0.0245021 0.0 
-0.00417557 0.0578561 0.0 
1.4118 -0.0195735 0.0 
1.29549 0.445931 0.0 
0.417107 0.540394 0.0 
0.497171 0.889818 0.0 
-0.000463879 0.021095 0.0 
0.0226911 0.0564243 0.0 
0.911808 0.763493 0.0 
-0.00416529 0.0399693 0.0 
1.06085 0.814664 0.0 
-0.000130879 0.0191835 0.0 
0.879745 0.938614 0.0 
-0.00422621 0.0271976 0.0 
-0.000655821 0.018095 0.0 
1.27557 0.462598 0.0 
1.17534 -0.189161 0.0 
-0.00283745 0.0299513 0.0 
0.660132 0.686804 0.0 
0.458047 0.893487 0.0 
0.00317019 0.0592239 0.0 
1.09813 0.431313 0.0 
1.43096 0.326439 0.0 
-0.00626831 0.0385229 0.0 
-0.00321055 0.039745 0.0 
-0.00302047 0.0187087 0.0 
1.52192 0.714753 0.0 
1.17166 0.850081 0.0 
0.180089 0.579576 0.0 
1.43862 0.836062 0.0 
-0.0028925 0.0401458 0.0 
1.00204 0.159151 0.0 
1.49437 0.623708 0.0 
-0.0079581 0.0398109 0.0 
0.0810245 -0.0874037 0.0 
1.6865 0.474243 0.0 
-0.00504511 0.0371152 0.0 
-0.00914208 0.0379585 0.0 
-0.00856352 0.0368813 0.0 
0.880677 0.775254 0.0 
1.02202 0.900305 0.0 
0.330819 0.708203 0.0 
-0.00544049 0.0363019 0.0 
0.828368 1.01601 0.0 
-0.00133723 0.0304032 0.0 
1.37347 0.493687 0.0 
-0.00545933 0.0279125 0.0 
1.2528 0.473653 0.0 
-0.00551858 0.0373459 0.0 
1.29669 0.375539 0.0 
-1.26738e-06 1.8692e-06 0.0 
1.44959 0.382038 0.0 
0.58056 0.843013 0.0 
-3.16951e-19 -2.82687e-20 0.0 
-5.02022e-21 -2.1322e-21 0.0 
-3.33395e-20 -1.26868e-20 0.0 
1.73513 0.302448 0.0 
1.01294 0.145987 0.0 
0.90662 0.820975 0.0 
0.00312528 0.0316907 0.0 
0.701479 0.664032 0.0 
0.893077 -0.123854 0.0 
1.01864 0.0133377 0.0 
1.16668 -0.0510126 0.0 
-0.00581033 0.0117801 0.0 
2.23326e-37 7.99941e-38 0.0 
0.441402 -0.0961437 0.0 
-2.84017e-19 -1.30149e-19 0.0 
1.56214 0.260558 0.0 
0.775988 0.788112 0.0 
-3.25832e-19 -2.17942e-20 0.0 
1.36703 0.350892 0.0 
1.54808 0.762396 0.0 
0.030842 0.0606117 0.0 
-1.77626e-19 -9.55934e-21 0.0 
-5.4099e-20 -4.17916e-20 0.0 
0.0594059 0.137939 0.0 
0.412965 0.749983 0.0 
0.00284675 0.000157291 0.0 
0.7898 0.676829 0.0 
1.546 -0.0214359 0.0 
0.989599 -0.0471943 0.0 
-1.38425e-19 -5.76266e-20 0.0 
1.03749 0.50952 0.0 
-3.15885e-19 -1.41511e-19 0.0 
-1.74816e-19 -3.47457e-21 0.0 
1.06866 -0.169129 0.0 
-2.84408e-19 -5.49907e-20 0.0 
-0.00583979 0.00918769 0.0 
3.19815e-37 1.25386e-37 0.0 
-2.22953e-21 -1.49121e-21 0.0 
0.692741 0.0236874 0.0 
-0.00255017 0.0245188 0.0 
-0.00444466 0.0269129 0.0 
1.57952e-39 1.44662e-39 0.0 
-0.00216007 0.00369587 0.0 
-0.0112826 0.00934064 0.0 
4.0671e-45 3.91444e-45 0.0 
3.68327e-37 1.92264e-37 0.0 
0.0818797 0.0599447 0.0 
-0.00341524 0.00367225 0.0 
0.0240041 -0.00444127 0.0 
1.09803e-50 4.93052e-51 0.0 
-1.83983e-20 -1.23803e-20 0.0 
0.246573 0.0217927 0.0 
0.00602207 0.000390284 0.0 
9.40829e-44 9.05373e-44 0.0 
-0.00383435 0.0279911 0.0 
0.0979228 0.108501 0.0 
-0.00116505 0.00220299 0.0 
0.507956 -0.012918 0.0 
-1.90732e-19 -1.00126e-19 0.0 
-0.000162299 0.0190652 0.0 
4.28003e-37 1.99853e-37 0.0 
-1.45198e-19 -8.97957e-20 0.0 
0.351678 -0.0985755 0.0 
0.0270747 -0.124526 0.0 
8.51417e-54 7.63055e-54 0.0 
0.00387767 0.0623796 0.0 
0.144264 0.1062 0.0 
0.113762 0.0656186 0.0 
-3.10776e-09 3.63505e-09 0.0 
9.08611e-43 4.01108e-43 0.0 
4.36723e-37 1.80275e-37 0.0 
-3.60042e-20 -2.40049e-20 0.0 
4.59618e-43 4.38674e-43 0.0 
-1.34829e-20 -3.94398e-21 0.0 
2.63591e-38 1.16365e-38 0.0 
-8.21841e-20 -2.61497e-20 0.0 
-2.81987e-19 -4.09797e-21 0.0 
0.106804 0.190791 0.0 
-0.00328135 0.0228324 0.0 
-2.04119e-19 -2.26193e-21 0.0 
-2.22781e-19 -9.67316e-20 0.0 
-0.0115392 0.00819849 0.0 
0.264069 0.0246109 0.0 
0.073802 -0.0454344 0.0 
2.05409e-08 7.74491e-09 0.0 
-3.5307e-19 -1.46804e-19 0.0 
0.00041557 0.0309564 0.0 
0.649622 -0.198643 0.0 
-1.06974e-19 -4.40986e-20 0.0 
-2.5407e-19 1.85229e-20 0.0 
-0.00468 0.00792628 0.0 
-0.00528736 0.027781 0.0 
5.72536e-38 4.59394e-38 0.0 
0.00429852 -0.000715642 0.0 
0.0388512 -0.0189352 0.0 
0.000134665 8.65159e-06 0.0 
0.159376 0.14938 0.0 
-3.24636e-19 -1.11179e-19 0.0 
0.0376487 0.0128442 0.0 
0.177718 0.192072 0.0 
1.08802 0.779075 0.0 
-2.4252e-19 -5.79182e-21 0.0 
1.25244 0.31325 0.0 
2.43367e-37 1.14008e-37 0.0 
1.00175 0.0345922 0.0 
-2.89726e-19 2.65357e-20 0.0 
0.0870827 0.00191333 0.0 
0.166675 -0.0239341 0.0 
-0.00604184 0.0422247 0.0 
-0.000643382 0.0271585 0.0 
0.0389186 -0.138523 0.0 
1.82112e-45 1.53187e-45 0.0 
1.06341 -0.192961 0.0 
-3.73143e-20 -1.64063e-20 0.0 
-2.43941e-19 -1.18763e-19 0.0 
-5.60405e-20 -9.23465e-21 0.0 
-1.78873e-19 -6.2022e-20 0.0 
0.00289184 0.000255588 0.0 
-0.00567117 0.043013 0.0 
0.0246684 0.00871767 0.0 
-0.00508831 0.0275069 0.0 
-0.00733775 0.0088628 0.0 
0.0120583 -0.000566052 0.0 
-2.75394e-19 -3.69243e-20 0.0 
-0.00931194 0.0233361 0.0 
0.359252 -0.129575 0.0 
-0.0105699 0.0130926 0.0 
0.683315 0.0362959 0.0 
-2.45503e-20 -9.99969e-21 0.0 
1.0803 -0.223463 0.0 
-2.9337e-19 -3.44307e-20 0.0 
1.05633 -0.297956 0.0 
0.941625 -0.172714 0.0 
1.03916 -0.261938 0.0 
1.20671 -0.159989 0.0 
-0.00457916 0.0238025 0.0 
-0.012515 0.0115336 0.0 
-0.00153665 0.00262119 0.0 
0.555118 0.0663231 0.0 
1.50891e-42 1.3819e-42 0.0 
-7.96589e-20 -2.93721e-20 0.0 
-9.30445e-21 -7.7103e-21 0.0 
0.096676 0.00594009 0.0 
-1.73084e-19 -1.13891e-19 0.0 
0.340906 0.12668 0.0 
0.109784 0.426702 0.0 
0.0471334 0.020053 0.0 
-0.0113704 0.010173 0.0 
6.07408e-38 6.28639e-38 0.0 
1.16877 -0.0692747 0.0 
-0.00564197 0.0133306 0.0 
0.0182208 0.000997466 0.0 
2.29997e-37 2.16982e-37 0.0 
0.968363 0.187123 0.0 
-0.00155547 0.00144834 0.0 
-0.0125197 0.0103438 0.0 
-1.74364e-19 -1.99583e-20 0.0 
-0.0110718 0.0058347 0.0 
0.0308031 0.00137488 0.0 
0.0514793 0.270002 0.0 
-0.0135928 0.0134166 0.0 
0.0845995 0.0549919 0.0 
-3.95824e-20 -3.71886e-20 0.0 
1 0 0.0 
0.446131 0.273387 0.0 
-0.00911018 0.0147869 0.0 
-0.000253595 0.000200301 0.0 
0.0212726 0.165897 0.0 
-0.00972132 0.00732772 0.0 
-1.44446e-19 3.51224e-21 0.0 
1.03102 0.0868691 0.0 
-0.0058126 0.00924313 0.0 
1.92426e-38 9.25918e-39 0.0 
0.20619 -0.0122428 0.0 
-0.0105906 0.00968612 0.0 
0.065708 0.264993 0.0 
-0.00964613 0.013476 0.0 
-6.83959e-20 -5.77026e-20 0.0 
-1.22233e-19 -1.07248e-19 0.0 
-3.43711e-19 -6.93864e-20 0.0 
-0.00785018 0.00694009 0.0 
0.0121233 -0.00367645 0.0 
0.764209 0.073171 0.0 
-0.0107297 0.00513746 0.0 
0.0943019 0.354936 0.0 
0.00187593 0.0318316 0.0 
-8.7453e-05 0.000163054 0.0 
1.13127 -0.369603 0.0 
0.135428 0.0119695 0.0 
0.865907 -0.33582 0.0 
0.000739931 0.0276516 0.0 
1.01 0.132482 0.0 
-8.88025e-21 -7.15371e-21 0.0 
2.16001e-51 1.01726e-51 0.0 
-0.000375594 0.000553945 0.0 
-0.0167923 0.0202652 0.0 
-3.12318e-19 1.79374e-20 0.0 
-0.0114251 0.00681662 0.0 
-0.0100248 0.0165181 0.0 
-0.00901145 0.00713454 0.0 
-0.00588196 0.0105647 0.0 
0.982612 0.307494 0.0 
0.590657 -0.354265 0.0 
-1.95696e-19 -7.55035e-20 0.0 
0.218236 0.0810964 0.0 
-0.00776256 0.0089802 0.0 
-1.41307e-19 -1.15436e-19 0.0 
1.10132e-42 1.04839e-42 0.0 
-0.0205553 0.053108 0.0 
-0.0105733 0.00599825 0.0 
-0.00587071 0.0242357 0.0 
0.163325 -0.03372 0.0 
-0.0146158 0.00878448 0.0 
-0.0134599 0.00881271 0.0 
0.694057 0.248969 0.0 
-0.00950357 0.00873432 0.0 
0.0563521 0.0125565 0.0 
-0.00814973 0.00777907 0.0 
-0.00359874 0.0275506 0.0 
1.19896 0.0321335 0.0 
-0.00534702 0.00439357 0.0 
1.67143e-37 1.54587e-37 0.0 
1.20961 -0.113482 0.0 
0.179476 0.175034 0.0 
0.957744 -0.339892 0.0 
-0.00507302 0.0135219 0.0 
0.887232 -0.260311 0.0 
-5.13997e-20 -4.60312e-20 0.0 
0.549643 -0.312357 0.0 
1.49253e-37 1.45861e-37 0.0 
-0.00790482 0.0241234 0.0 
-0.0106487 0.00920281 0.0 
-0.0129075 0.0166177 0.0 
0.258566 -0.0564151 0.0 
-0.0109645 0.00469157 0.0 
6.97503e-38 5.93882e-38 0.0 
-0.0106448 0.00922515 0.0 
1.47468e-06 6.03411e-07 0.0 
-0.00688211 0.0358481 0.0 
-0.010229 0.0136342 0.0 
-7.11702e-07 1.21858e-06 0.0 
-0.00712407 0.0420133 0.0 
1.25219 -0.266624 0.0 
4.0081e-52 2.66063e-52 0.0 
0.0450769 0.0329917 0.0 
-0.0266407 0.0627028 0.0 
1.62288 -0.144159 0.0 
-1.74801e-19 1.65894e-20 0.0 
0.00289822 0.00223059 0.0 
1.52504 -0.159591 0.0 
0.5509 0.290243 0.0 
2.10069e-50 1.01878e-50 0.0 
0.00321607 0.00245682 0.0 
5.53207e-38 5.23382e-38 0.0 
-1.43072e-19 -5.69816e-20 0.0 
-0.00977621 0.00471003 0.0 
-0.00355651 0.00358862 0.0 
-0.0126658 0.00502408 0.0 
-5.08985e-05 0.000131472 0.0 
-0.00976548 0.00538582 0.0 
-0.00677839 0.0191895 0.0 
-1.56054e-20 -1.43767e-20 0.0 
0.738647 -0.140347 0.0 
7.13589e-39 7.4208e-39 0.0 
-0.00796876 0.0176424 0.0 
-0.00704861 0.017789 0.0 
-0.00622632 0.00588117 0.0 
-9.29942e-23 -7.75478e-23 0.0 
1.31174 -0.208478 0.0 
-0.00935957 0.0209741 0.0 
-7.37941e-24 -6.68511e-24 0.0 
1.35431 0.591413 0.0 
-0.0127748 0.00621791 0.0 
-4.16584e-20 -3.77491e-20 0.0 
-1.61882e-19 -1.39949e-19 0.0 
-0.00665504 0.0246627 0.0 
-1.39005e-20 -9.29727e-21 0.0 
-0.00656734 0.0150432 0.0 
-0.00640566 0.00930415 0.0 
-2.95615e-19 3.18102e-20 0.0 
-0.00917522 0.00995208 0.0 
-0.00729366 0.0179431 0.0 
-0.0122375 0.00744229 0.0 
0.0891794 0.0673305 0.0 
-0.00490769 0.0283538 0.0 
0.169253 -0.0895025 0.0 
-1.9425e-19 1.12893e-20 0.0 
-0.0117916 0.00700258 0.0 
1.17434 0 0.0 
-1.36902e-05 2.34405e-05 0.0 
-0.00603363 0.0146652 0.0 
-8.75203e-20 -8.01448e-20 0.0 
-0.0104398 0.0107867 0.0 
-1.35097e-19 -1.21126e-19 0.0 
-0.00794984 0.0381161 0.0 
-1.17376e-22 -1.06246e-22 0.0 
-0.00496308 0.0260726 0.0 
-0.00177724 0.00329058 0.0 
-0.000228182 0.000422835 0.0 
-0.0116467 0.00667701 0.0 
-0.0110889 0.0063439 0.0 
2.11164e-37 1.65304e-37 0.0 
7.91234e-55 6.82787e-55 0.0 
1.53731e-40 1.46091e-40 0.0 
-0.00944596 0.00990655 0.0 
-0.00180706 0.0249763 0.0 
-0.00896351 0.00834987 0.0 
-0.0120114 0.00768883 0.0 
-0.00685005 0.010187 0.0 
-0.00394735 0.00989725 0.0 
0.657365 0.245683 0.0 
-0.00573932 0.0119902 0.0 
0.0387325 0.199519 0.0 
-0.00715376 0.0145959 0.0 
-0.00265376 0.00249238 0.0 