<VTKFile type="UnstructuredGrid" version="0.1" byte_order="LittleEndian">
  <UnstructuredGrid>
    <Piece NumberOfPoints="19027" NumberOfCells="37966">
      <Points>
        <DataArray type = "Float64" NumberOfComponents="3" format="ascii">
3.64895 3.55385 0.0 
3.54207 3.2968 0.0 
3.40788 3.37283 0.0 
3.53725 3.27821 0.0 
3.8764 3.88406 0.0 
3.51619 3.21773 0.0 
3.52122 3.21275 0.0 
3.52314 3.2193 0.0 
3.5197 3.21985 0.0 
3.53291 3.19407 0.0 
3.52685 3.2032 0.0 
3.52802 3.2123 0.0 
3.5386 3.22139 0.0 
3.46207 3.65553 0.0 
3.39991 3.38195 0.0 
3.54454 3.77527 0.0 
3.5319 3.28017 0.0 
3.53092 3.2023 0.0 
3.52533 3.2103 0.0 
3.55933 3.16034 0.0 
3.54868 3.78366 0.0 
3.38989 3.42592 0.0 
3.39728 3.41217 0.0 
3.61641 3.6328 0.0 
3.54068 3.19223 0.0 
3.53772 3.1906 0.0 
3.55097 3.1684 0.0 
3.59055 3.82282 0.0 
3.54449 3.18045 0.0 
3.39617 3.42633 0.0 
3.54948 3.36348 0.0 
3.46638 3.66722 0.0 
3.48792 3.70806 0.0 
3.53467 3.20335 0.0 
3.53706 3.29307 0.0 
3.39808 3.35687 0.0 
3.5937 3.4855 0.0 
3.53676 3.26638 0.0 
3.51974 3.76746 0.0 
3.60467 3.10564 0.0 
3.58027 3.80416 0.0 
3.51911 3.24363 0.0 
3.4151 3.36312 0.0 
3.62897 3.54062 0.0 
3.56371 3.8097 0.0 
3.64294 3.5235 0.0 
3.53371 3.35748 0.0 
3.60983 3.10068 0.0 
3.50491 3.26084 0.0 
3.47256 3.66796 0.0 
3.42352 3.35094 0.0 
3.56176 3.38595 0.0 
3.5951 3.11061 0.0 
3.57618 3.40961 0.0 
3.41644 3.51167 0.0 
3.50537 3.24994 0.0 
3.49609 3.27608 0.0 
3.54367 3.3619 0.0 
3.58122 3.12953 0.0 
3.59399 3.11949 0.0 
3.57976 3.83249 0.0 
3.58682 3.81564 0.0 
3.39925 3.32833 0.0 
3.56036 3.3111 0.0 
3.50077 3.27906 0.0 
3.44314 3.61906 0.0 
3.52989 3.80731 0.0 
3.57315 3.14223 0.0 
3.6645 3.55284 0.0 
3.38415 3.3899 0.0 
3.53487 3.18739 0.0 
3.68563 3.66494 0.0 
3.58458 3.12274 0.0 
3.60626 3.10668 0.0 
3.62164 3.09446 0.0 
3.60265 3.10428 0.0 
3.59394 3.10871 0.0 
3.57686 3.13071 0.0 
3.58651 3.12333 0.0 
3.40725 3.32336 0.0 
3.52856 3.22202 0.0 
3.52891 3.19614 0.0 
3.61188 3.45509 0.0 
3.41185 3.34335 0.0 
3.52727 3.24574 0.0 
3.509 3.26535 0.0 
3.38862 3.41255 0.0 
3.54077 3.78114 0.0 
3.58787 3.12466 0.0 
3.56281 3.1527 0.0 
3.5019 3.71666 0.0 
3.5735 3.13752 0.0 
3.5326 3.78032 0.0 
3.52442 3.24086 0.0 
3.55273 3.32916 0.0 
3.51999 3.27882 0.0 
3.59973 3.10362 0.0 
3.52534 3.27548 0.0 
3.53978 3.81578 0.0 
3.64979 3.58222 0.0 
3.40668 3.36073 0.0 
3.51886 3.77378 0.0 
3.57775 3.13656 0.0 
3.40194 3.39494 0.0 
3.56634 3.41855 0.0 
3.70099 3.68592 0.0 
3.40376 3.35132 0.0 
3.49799 3.26244 0.0 
3.55525 3.43999 0.0 
3.40116 3.36779 0.0 
3.55946 3.26647 0.0 
3.58493 3.47563 0.0 
3.49136 3.71654 0.0 
3.60229 3.46141 0.0 
3.56184 3.7821 0.0 
3.63414 3.57007 0.0 
3.54678 3.75824 0.0 
3.3997 3.34181 0.0 
3.39428 3.37723 0.0 
3.60058 3.43278 0.0 
3.38807 3.3574 0.0 
3.6301 3.08774 0.0 
3.59406 3.82996 0.0 
3.49162 3.68555 0.0 
3.66219 3.58098 0.0 
3.53948 3.39519 0.0 
3.5226 3.30219 0.0 
3.40772 3.3348 0.0 
3.53594 3.77137 0.0 
3.48701 3.69113 0.0 
3.62213 3.0858 0.0 
3.54242 3.20462 0.0 
3.51346 3.2804 0.0 
3.52997 3.32085 0.0 
3.41355 3.33043 0.0 
3.57784 3.43231 0.0 
3.52158 3.73934 0.0 
3.5274 3.79349 0.0 
3.59677 3.11519 0.0 
3.60993 3.09718 0.0 
3.39501 3.40386 0.0 
3.52227 3.74671 0.0 
3.5617 3.43573 0.0 
3.53756 3.37257 0.0 
3.51674 3.69605 0.0 
3.56786 3.14572 0.0 
3.59247 3.11686 0.0 
3.58462 3.11976 0.0 
3.47077 3.67823 0.0 
3.5124 3.73202 0.0 
3.58674 3.4526 0.0 
3.51798 3.25171 0.0 
3.55844 3.45858 0.0 
3.55981 3.77598 0.0 
3.48544 3.7024 0.0 
3.54993 3.71896 0.0 
3.54946 3.76989 0.0 
3.6148 3.09066 0.0 
3.57749 3.80925 0.0 
3.54515 3.17521 0.0 
3.54725 3.30044 0.0 
3.60688 3.09686 0.0 
3.5838 3.82194 0.0 
3.51773 3.33387 0.0 
3.48073 3.67987 0.0 
3.55475 3.80422 0.0 
3.56137 3.14848 0.0 
3.39245 3.39633 0.0 
3.54258 3.37603 0.0 
3.5024 3.24588 0.0 
3.56762 3.14252 0.0 
3.61601 3.09308 0.0 
3.4155 3.34717 0.0 
3.57201 3.80461 0.0 
3.61351 3.10097 0.0 
3.5957 3.46666 0.0 
3.53956 3.18008 0.0 
3.55505 3.3855 0.0 
3.59991 3.51286 0.0 
3.59992 3.11096 0.0 
3.5284 3.30567 0.0 
3.58924 3.1141 0.0 
3.59847 3.10989 0.0 
3.61698 3.09551 0.0 
3.61013 3.5355 0.0 
3.49116 3.70127 0.0 
3.50739 3.72021 0.0 
3.61006 3.68082 0.0 
3.55084 3.39461 0.0 
3.52042 3.31605 0.0 
3.41451 3.49192 0.0 
3.58686 3.37055 0.0 
3.52799 3.77266 0.0 
3.6554 3.60484 0.0 
3.50858 3.73697 0.0 
3.57988 3.39283 0.0 
3.55539 3.79739 0.0 
3.38445 3.40608 0.0 
3.5507 3.28045 0.0 
3.52066 3.7526 0.0 
3.60586 3.50466 0.0 
3.62243 3.08861 0.0 
3.39027 3.36763 0.0 
3.5892 3.11681 0.0 
3.57233 3.7977 0.0 
3.51554 3.72763 0.0 
3.52929 3.74214 0.0 
3.51552 3.71833 0.0 
3.50647 3.74338 0.0 
3.50228 3.63335 0.0 
3.53804 3.74478 0.0 
3.47906 3.68652 0.0 
3.5218 3.73114 0.0 
3.49748 3.69799 0.0 
3.43329 3.33484 0.0 
3.53689 3.73212 0.0 
3.52068 3.68152 0.0 
3.72114 3.91168 0.0 
3.53654 3.78884 0.0 
3.62607 3.08831 0.0 
4.81289 2.95065 0.0 
4.45295 3.1593 0.0 
4.52884 2.92684 0.0 
4.62347 2.91228 0.0 
3.57033 3.41468 0.0 
3.93153 3.96293 0.0 
4.22101 3.03194 0.0 
3.52266 3.71449 0.0 
3.50704 3.69703 0.0 
4.242 3.03279 0.0 
3.55289 3.30828 0.0 
4.50244 2.89153 0.0 
4.43311 3.11887 0.0 
3.57247 3.79117 0.0 
4.48219 3.15415 0.0 
3.81506 3.91861 0.0 
4.27498 3.06094 0.0 
3.63906 3.55744 0.0 
3.6111 3.57182 0.0 
3.96923 3.96762 0.0 
4.21665 3.03525 0.0 
3.56394 3.79015 0.0 
4.81028 2.96871 0.0 
3.63347 3.5911 0.0 
4.44747 3.02414 0.0 
4.94144 2.97921 0.0 
4.44706 3.1253 0.0 
4.47423 3.0033 0.0 
4.28491 3.05455 0.0 
3.53772 3.32862 0.0 
3.59084 3.84186 0.0 
4.25372 3.04659 0.0 
4.18554 3.0247 0.0 
4.54336 2.91287 0.0 
4.29744 3.05346 0.0 
3.46166 3.64191 0.0 
5.01293 3.0122 0.0 
4.5004 2.997 0.0 
4.16464 3.03569 0.0 
4.46925 3.06464 0.0 
3.66518 3.86419 0.0 
4.44301 3.10701 0.0 
3.69518 3.68601 0.0 
4.22759 3.02971 0.0 
4.52573 3.01665 0.0 
4.20741 3.03196 0.0 
3.64355 3.60818 0.0 
4.23501 3.03298 0.0 
3.52541 3.26186 0.0 
4.30621 3.063 0.0 
4.55032 2.94219 0.0 
4.23611 3.02607 0.0 
4.84716 2.97863 0.0 
4.70959 2.94913 0.0 
4.66348 2.91504 0.0 
4.45367 2.96707 0.0 
4.50409 3.04844 0.0 
4.48133 3.02145 0.0 
4.49519 2.97236 0.0 
3.78042 3.79632 0.0 
3.5004 3.31199 0.0 
4.26504 3.05158 0.0 
3.98796 3.98717 0.0 
4.19062 3.04221 0.0 
4.5119 3.02973 0.0 
4.32128 3.06587 0.0 
3.989 3.99216 0.0 
4.19005 3.03095 0.0 
3.75002 3.8674 0.0 
4.35515 3.06913 0.0 
4.23949 3.03781 0.0 
4.18023 3.01492 0.0 
4.10661 3.02594 0.0 
4.21965 3.02179 0.0 
3.46651 3.62406 0.0 
4.54583 3.01249 0.0 
3.56529 3.45579 0.0 
4.21372 3.02044 0.0 
3.42776 3.55548 0.0 
3.55759 3.76852 0.0 
4.2254 3.02291 0.0 
3.49139 3.33601 0.0 
4.4537 3.01288 0.0 
4.5116 2.92565 0.0 
4.46117 3.093 0.0 
4.41746 3.10707 0.0 
4.22351 3.01777 0.0 
4.4886 3.03741 0.0 
4.35723 3.04486 0.0 
4.27406 2.93714 0.0 
4.21152 3.02771 0.0 
4.22815 3.02003 0.0 
4.76747 2.97981 0.0 
4.2043 3.00267 0.0 
4.22233 3.0094 0.0 
3.54976 3.73719 0.0 
4.21414 3.00449 0.0 
4.3756 3.0927 0.0 
4.42834 3.09785 0.0 
3.58104 3.74614 0.0 
4.5706 2.92464 0.0 
4.42717 3.14483 0.0 
4.66738 2.82907 0.0 
4.39296 3.07111 0.0 
4.82392 2.9863 0.0 
4.32837 3.047 0.0 
4.42869 3.13305 0.0 
4.22278 3.02526 0.0 
3.9897 3.99163 0.0 
3.41642 3.52763 0.0 
4.71148 2.8403 0.0 
4.20054 3.01241 0.0 
3.89253 3.00211 0.0 
4.23225 3.001 0.0 
4.4586 3.16652 0.0 
4.16774 3.04659 0.0 
4.34005 3.05773 0.0 
3.92886 3.00011 0.0 
4.41264 3.12393 0.0 
4.4007 3.10394 0.0 
3.46964 3.37079 0.0 
4.23391 3.00217 0.0 
4.51633 2.96947 0.0 
4.50058 3.00807 0.0 
4.37794 3.06718 0.0 
4.21675 3.00514 0.0 
4.79969 2.98148 0.0 
3.53804 3.2296 0.0 
4.75751 2.99064 0.0 
4.38565 3.10129 0.0 
4.17739 3.03675 0.0 
4.41672 3.09366 0.0 
3.95815 3.9578 0.0 
3.90036 3.95267 0.0 
4.47144 2.91269 0.0 
3.53178 3.29201 0.0 
3.643 3.85214 0.0 
4.87271 2.98995 0.0 
4.45 3.07203 0.0 
4.4382 3.02635 0.0 
4.47807 3.01411 0.0 
3.98684 3.99404 0.0 
3.85552 3.93862 0.0 
4.95784 2.981 0.0 
4.18727 3.01916 0.0 
4.42445 3.11876 0.0 
4.31226 3.05151 0.0 
4.46907 3.01493 0.0 
4.41563 3.13856 0.0 
4.49306 3.10097 0.0 
4.64229 2.99143 0.0 
4.37389 3.04766 0.0 
4.51159 2.95874 0.0 
4.3964 3.08494 0.0 
4.30202 3.0404 0.0 
3.48383 3.36776 0.0 
3.95816 3.96697 0.0 
4.20821 2.99557 0.0 
4.40424 3.04894 0.0 
4.48813 3.00594 0.0 
4.51841 2.94591 0.0 
4.41278 3.07875 0.0 
3.55672 3.28541 0.0 
4.9238 2.98366 0.0 
4.31821 3.0393 0.0 
3.89536 3.93047 0.0 
4.46665 3.16874 0.0 
4.44788 3.05879 0.0 
4.46228 3.01066 0.0 
3.94267 3.98695 0.0 
4.59655 2.84258 0.0 
3.43381 3.57465 0.0 
3.56965 3.75172 0.0 
4.3438 3.0401 0.0 
4.39017 3.0451 0.0 
4.41059 3.0618 0.0 
4.95502 2.98868 0.0 
4.17654 3.02065 0.0 
4.12771 3.03275 0.0 
4.47892 3.18161 0.0 
4.589 2.82695 0.0 
4.69646 2.8662 0.0 
3.84874 3.94717 0.0 
4.22346 2.98255 0.0 
3.81701 3.02055 0.0 
3.87508 3.92776 0.0 
4.35899 3.09313 0.0 
4.22627 2.99879 0.0 
4.19483 3.02311 0.0 
4.23564 3.02904 0.0 
4.43557 3.15058 0.0 
4.42392 2.92962 0.0 
3.95516 3.98406 0.0 
4.20701 3.01345 0.0 
4.20124 3.01862 0.0 
4.20783 3.01948 0.0 
4.6334 2.82601 0.0 
3.95043 3.95468 0.0 
4.51425 2.93562 0.0 
4.43561 3.07649 0.0 
4.58612 2.9775 0.0 
4.2048 3.04203 0.0 
4.22855 3.01048 0.0 
4.19424 3.01822 0.0 
4.47864 3.13283 0.0 
4.47274 3.17307 0.0 
4.34135 2.95961 0.0 
4.47332 3.17813 0.0 
3.97673 3.99196 0.0 
4.47472 3.18841 0.0 
4.46636 3.17736 0.0 
4.44084 2.85604 0.0 
4.16551 3.02166 0.0 
4.22626 3.00159 0.0 
3.85957 3.94841 0.0 
4.44513 3.1136 0.0 
4.48084 3.18956 0.0 
4.49126 2.94104 0.0 
4.12214 3.02047 0.0 
3.98775 3.99207 0.0 
3.5891 3.50061 0.0 
3.96321 3.96468 0.0 
3.97171 3.97782 0.0 
4.19803 3.0016 0.0 
3.44527 3.57307 0.0 
4.22575 3.00571 0.0 
3.61362 3.83477 0.0 
4.49079 3.0567 0.0 
4.46549 3.18777 0.0 
4.59983 2.86484 0.0 
3.64048 3.85677 0.0 
3.96025 3.98164 0.0 
4.49641 2.92845 0.0 
4.45715 3.18766 0.0 
4.45073 3.17307 0.0 
3.54994 3.81939 0.0 
4.22368 3.00316 0.0 
4.4541 3.11011 0.0 
4.44709 3.09076 0.0 
4.20294 3.05305 0.0 
3.41872 3.47971 0.0 
4.47536 3.1937 0.0 
3.98872 3.99302 0.0 
3.5542 3.78187 0.0 
4.53676 2.86392 0.0 
4.44337 3.16719 0.0 
4.43644 2.90889 0.0 
4.25069 3.03244 0.0 
4.74392 2.95044 0.0 
4.22636 3.03942 0.0 
[...]
<PointData>
  <DataArray type = "Float64" Name="Vitesse" NumberOfComponents="3" format="ascii">
0.0623785 -0.0423686 0.0 
0.0312423 -0.022112 0.0 
0.000236755 -0.000710906 0.0 
0.026943 -0.0155654 0.0 
0.0121959 -0.0101146 0.0 
0.0305931 -0.0154472 0.0 
0.058675 -0.0259817 0.0 
0.0575148 -0.0244315 0.0 
0.0623608 -0.0234766 0.0 
0.0222574 -0.0455755 0.0 
0.0404865 -0.0327631 0.0 
0.042942 -0.0295664 0.0 
0.0329262 -0.0249401 0.0 
-1.22395e-16 1.61309e-16 0.0 
0.0257706 -0.0786577 0.0 
8.47836e-08 3.15741e-08 0.0 
0.0290931 -0.0153187 0.0 
0.0294318 -0.0363591 0.0 
0.0463452 -0.030509 0.0 
-0.0257356 -0.0514836 0.0 
0.0011849 0.000297214 0.0 
0.0544685 -0.181227 0.0 
-4.51265e-16 1.8374e-15 0.0 
-3.48841e-25 2.13243e-25 0.0 
0.0159522 -0.0463509 0.0 
0.0164874 -0.0472804 0.0 
-0.0178108 -0.0532786 0.0 
0.000918373 0.000107648 0.0 
0.00533576 -0.0572369 0.0 
0.000130109 -0.000432895 0.0 
0.0536645 -0.0283128 0.0 
0.000125624 -0.000103452 0.0 
0.00183474 -0.000168049 0.0 
0.0273124 -0.0365491 0.0 
0.0283494 -0.0185484 0.0 
0.238588 -0.57449 0.0 
0.0552511 -0.0257 0.0 
0.0285813 -0.0149615 0.0 
0.0274256 0.00954158 0.0 
-0.0279837 -0.0780957 0.0 
-2.84615e-16 -6.87188e-17 0.0 
0.0321764 -0.00890353 0.0 
-8.6155e-16 2.03712e-15 0.0 
0.0547798 -0.0352829 0.0 
0.0545187 -0.00273339 0.0 
0.0529166 -0.035313 0.0 
0.056082 -0.0258062 0.0 
-0.0131511 -0.0872814 0.0 
-2.46521e-37 4.27283e-37 0.0 
-1.82794e-16 1.70641e-16 0.0 
-7.99442e-16 1.75467e-15 0.0 
0.0562776 -0.0232596 0.0 
-0.0260562 -0.082604 0.0 
0.0633537 -0.0316047 0.0 
-4.0756e-17 3.51226e-16 0.0 
-1.90273e-35 3.38636e-35 0.0 
-5.42271e-37 1.00946e-36 0.0 
0.0557802 -0.0288116 0.0 
-0.056858 -0.0740984 0.0 
-0.0580731 -0.0639301 0.0 
0.0631393 0.0224847 0.0 
-3.08544e-16 -1.04186e-16 0.0 
0.36158 -0.769511 0.0 
0.047924 -0.038076 0.0 
-2.52164e-38 6.24949e-38 0.0 
7.35888e-05 -0.000242995 0.0 
0.0954782 0.0354018 0.0 
-0.0498036 -0.0689738 0.0 
0.0628311 -0.0417153 0.0 
0.198008 -0.576799 0.0 
0.0168756 -0.053827 0.0 
0.0406182 -0.0276778 0.0 
-0.0495441 -0.0786053 0.0 
-0.038266 -0.0731612 0.0 
-0.00872553 -0.0987325 0.0 
-0.0130417 -0.0858674 0.0 
-0.00779282 -0.094394 0.0 
-0.0516351 -0.0788443 0.0 
-0.0547777 -0.0729641 0.0 
0.336331 -0.726671 0.0 
0.0416545 -0.0218834 0.0 
0.0348159 -0.0414654 0.0 
0.0600285 -0.0326532 0.0 
0.0686655 -0.13542 0.0 
0.0403727 -0.0167817 0.0 
0.0041792 -0.00157949 0.0 
0.0910588 -0.296488 0.0 
0.00941224 0.00319685 0.0 
-0.0592956 -0.0679572 0.0 
-0.0338662 -0.056654 0.0 
0.000336565 -2.67013e-05 0.0 
-0.0520264 -0.0731492 0.0 
0.0224779 0.00858575 0.0 
0.0431515 -0.0147313 0.0 
0.0516647 -0.0358823 0.0 
0.0157917 -0.0072024 0.0 
0.00619491 -0.0976294 0.0 
0.0242891 -0.0114436 0.0 
0.0987883 0.0316582 0.0 
0.0663723 -0.0398166 0.0 
0.00973581 -0.029193 0.0 
0.057836 0.0211084 0.0 
-0.0559576 -0.071173 0.0 
0.00021165 -0.000634175 0.0 
0.0634043 -0.0309967 0.0 
0.0386374 -0.026005 0.0 
0.151203 -0.343227 0.0 
-3.21004e-35 5.72434e-35 0.0 
0.0643854 -0.0349023 0.0 
0.0766816 -0.22982 0.0 
0.0278598 -0.0266489 0.0 
0.0602394 -0.0260641 0.0 
0.0068305 -0.000539675 0.0 
0.0596573 -0.0303469 0.0 
-1.39781e-16 -4.17059e-17 0.0 
0.066383 -0.0406205 0.0 
-9.00708e-17 -1.5541e-17 0.0 
0.312706 -0.697281 0.0 
0.16425 -0.492937 0.0 
0.0655513 -0.0333537 0.0 
0.311592 -0.720159 0.0 
0.0145593 -0.115475 0.0 
0.00217972 0.000257844 0.0 
-4.88624e-17 3.27318e-17 0.0 
0.0634221 -0.0388536 0.0 
0.0706834 -0.0144988 0.0 
0.0220988 -0.0112777 0.0 
0.257825 -0.543882 0.0 
0.000113474 4.23596e-05 0.0 
9.45864e-07 -3.95146e-07 0.0 
0.0785255 -0.140356 0.0 
0.0256766 -0.0362359 0.0 
0.000419976 -0.000190355 0.0 
0.047336 -0.028487 0.0 
0.212756 -0.420055 0.0 
0.0667523 -0.0333059 0.0 
4.1443e-06 5.24232e-07 0.0 
0.0886206 0.0347501 0.0 
-0.050719 -0.0666927 0.0 
0.0161764 -0.101806 0.0 
0.0250385 -0.0799714 0.0 
-2.04244e-16 -3.73633e-17 0.0 
0.0645066 -0.0339571 0.0 
0.0605557 -0.0244756 0.0 
-6.95972e-20 7.05986e-21 0.0 
-0.0436155 -0.0646251 0.0 
-0.0484623 -0.0714948 0.0 
-0.0389845 -0.086294 0.0 
0.00168322 -0.000825944 0.0 
-1.92756e-16 -4.06931e-19 0.0 
0.0635565 -0.0296664 0.0 
0.0375368 -0.014018 0.0 
0.0670678 -0.0321962 0.0 
-7.89234e-17 -2.388e-17 0.0 
0.000427586 -0.000141116 0.0 
-6.50592e-35 1.70145e-36 0.0 
-1.54104e-16 -5.88157e-17 0.0 
0.0619986 -0.127593 0.0 
-3.12815e-16 -1.00731e-16 0.0 
-0.00475553 -0.0582716 0.0 
0.037344 -0.0286333 0.0 
0.0359027 -0.111227 0.0 
0.00215742 0.000264864 0.0 
0.0572437 -0.0231134 0.0 
1.4723e-05 -6.72098e-06 0.0 
0.107662 -0.00601996 0.0 
-0.0368431 -0.057728 0.0 
0.0894143 -0.282872 0.0 
0.0620662 -0.0208294 0.0 
-1.13873e-34 1.9242e-34 0.0 
-0.0457734 -0.0666713 0.0 
0.0269513 -0.110897 0.0 
0.00294597 -0.00580249 0.0 
0.000602873 -3.29174e-05 0.0 
-0.0271239 -0.0831766 0.0 
0.0593223 -0.0288911 0.0 
0.00415056 -0.0574351 0.0 
0.0606957 -0.0170915 0.0 
0.045067 -0.0264646 0.0 
-0.0424947 -0.0695991 0.0 
0.027645 -0.019313 0.0 
-0.025731 -0.0892391 0.0 
-0.0327958 -0.0764093 0.0 
3.96648e-05 -0.0987405 0.0 
0.0508195 -0.0314715 0.0 
2.78227e-05 -1.00735e-05 0.0 
-1.37708e-16 1.29079e-17 0.0 
2.27902e-54 -8.9344e-55 0.0 
0.0599557 -0.0132291 0.0 
0.0223089 -0.0119754 0.0 
-4.93866e-17 3.69106e-16 0.0 
0.0476319 -0.0341585 0.0 
0.00701131 0.00258243 0.0 
0.0538946 -0.0318043 0.0 
0.000437424 5.51916e-05 0.0 
0.0576082 -0.0317741 0.0 
0.0533334 -0.00218298 0.0 
0.15743 -0.504758 0.0 
0.0280264 -0.0217783 0.0 
6.25316e-06 2.23662e-06 0.0 
0.0470762 -0.0261386 0.0 
0.0423586 -0.123531 0.0 
0.259437 -0.653177 0.0 
-0.039524 -0.0807015 0.0 
0.000427024 -2.38773e-05 0.0 
-1.4912e-16 5.57059e-18 0.0 
-1.3176e-16 -3.32546e-18 0.0 
-6.22809e-17 6.23451e-18 0.0 
0.0108473 0.00148121 0.0 
-1.25875e-34 1.8621e-34 0.0 
-7.27133e-17 8.11309e-18 0.0 
0.000184536 -8.38602e-05 0.0 
-1.35458e-16 6.22259e-18 0.0 
5.56397e-07 -2.32442e-07 0.0 
-5.12597e-16 1.13495e-15 0.0 
-7.2513e-18 9.02315e-19 0.0 
-3.22216e-21 6.88326e-21 0.0 
0.0485374 -0.0178835 0.0 
0.0472356 0.0177205 0.0 
0.0276863 -0.119177 0.0 
0.277579 -0.509483 0.0 
0.01136 0.024567 0.0 
0.169816 0.0521814 0.0 
0.301828 -0.213799 0.0 
0.0644332 -0.0314621 0.0 
-3.06771e-78 3.68119e-78 0.0 
-0.136306 -0.0323396 0.0 
-3.4604e-18 3.17663e-19 0.0 
-3.30053e-34 2.31925e-34 0.0 
-0.129623 0.0364478 0.0 
0.0455933 -0.0359742 0.0 
0.339558 0.0877807 0.0 
0.014554 0.0675954 0.0 
-1.91879e-16 -2.60092e-17 0.0 
0.0191234 0.00279422 0.0 
-1.95621e-37 1.34437e-37 0.0 
-0.197452 0.124064 0.0 
0.0620054 -0.0414896 0.0 
0.0696581 -0.0315141 0.0 
1.8572e-05 -4.53713e-05 0.0 
-0.150573 -0.0480436 0.0 
0.000196268 -1.09366e-05 0.0 
0.164685 -0.516643 0.0 
0.0687171 -0.0380317 0.0 
-0.0220637 0.176607 0.0 
0.136142 -0.315615 0.0 
0.0235529 0.044305 0.0 
0.0171092 0.128205 0.0 
-0.177528 0.154192 0.0 
0.0525571 -0.0289282 0.0 
0.10362 0.0156735 0.0 
-0.171316 0.0680732 0.0 
-0.122954 -0.134818 0.0 
0.216689 0.0211254 0.0 
-0.168171 0.183844 0.0 
-6.241e-17 1.2518e-16 0.0 
-0.0554154 -0.207744 0.0 
0.0560366 0.0566907 0.0 
-0.160686 -0.17834 0.0 
0.0361005 0.0535677 0.0 
1.32711e-07 -2.93513e-08 0.0 
0.0227159 0.0629763 0.0 
0.0396869 -0.0227146 0.0 
-0.124477 -0.00964515 0.0 
0.0801629 -0.0322249 0.0 
-0.1426 -0.0757838 0.0 
0.0556387 -0.0344742 0.0 
-0.133618 0.013331 0.0 
0.0382319 -0.0173286 0.0 
-0.182202 0.196442 0.0 
0.161633 -0.0281459 0.0 
-0.105716 0.0202072 0.0 
0.105067 -0.478844 0.0 
0.239354 -0.449208 0.0 
0.33273 -0.321955 0.0 
0.0413647 0.213153 0.0 
0.0605835 -0.00394841 0.0 
0.0322912 0.0786156 0.0 
0.0609424 0.106066 0.0 
0.0170604 -0.0199032 0.0 
3.66671e-51 -7.58766e-51 0.0 
-0.180416 0.100808 0.0 
-9.67055e-71 1.17079e-70 0.0 
-0.180329 -0.126074 0.0 
0.06671 -0.00801398 0.0 
-0.176341 0.220168 0.0 
-2.13719e-05 -4.2482e-05 0.0 
-0.144553 -0.124919 0.0 
3.762e-52 -8.43627e-53 0.0 
-0.148474 0.248822 0.0 
-0.149108 0.0258437 0.0 
-0.0852288 -0.144489 0.0 
-0.115898 -0.206973 0.0 
-0.0955297 -0.0318093 0.0 
-1.43851e-17 3.05703e-17 0.0 
0.0912157 -0.0720547 0.0 
0.066665 -0.0342963 0.0 
-0.0926168 -0.0502985 0.0 
-1.31883e-17 1.35675e-16 0.0 
-2.30863e-17 -8.57015e-18 0.0 
-0.0974991 -0.0134978 0.0 
-1.37927e-41 3.41913e-41 0.0 
-0.0144001 0.176344 0.0 
0.167211 0.096229 0.0 
0.0361641 0.0440759 0.0 
-0.0072169 0.1076 0.0 
-0.0756315 -0.0171628 0.0 
0.0474606 0.0378723 0.0 
-0.125616 0.26939 0.0 
0.427283 0.0929817 0.0 
-0.124378 -0.0610006 0.0 
-0.0835459 -0.00306898 0.0 
0.105453 -0.522426 0.0 
-0.0107699 -0.0698746 0.0 
-0.0359925 -0.0168222 0.0 
-1.1044e-22 1.41752e-23 0.0 
-0.0148365 -0.0403893 0.0 
-0.102704 0.203236 0.0 
0.00243591 0.10073 0.0 
-2.01132e-35 -4.12595e-36 0.0 
0.215205 -0.0703552 0.0 
0.00563982 0.0544066 0.0 
0.65376 -0.217721 0.0 
-0.0896661 0.222869 0.0 
0.0561621 -0.503577 0.0 
-0.140881 0.240822 0.0 
0.00968098 0.061621 0.0 
-0.108759 -0.0232748 0.0 
-1.62539e-07 -1.29057e-06 0.0 
-4.71259e-17 4.19502e-16 0.0 
0.669873 -0.302141 0.0 
-0.0627795 -0.0870792 0.0 
0.0125884 -0.144032 0.0 
0.011899 0.0179975 0.0 
0.00916328 0.0185583 0.0 
-0.185898 -0.171377 0.0 
-0.152406 0.248839 0.0 
-0.00932394 -0.152148 0.0 
-0.00704167 0.092425 0.0 
-0.0386452 0.143498 0.0 
-9.04696e-37 2.43567e-36 0.0 
0.00622954 0.0227414 0.0 
0.0898377 0.0444095 0.0 
0.055636 0.0415199 0.0 
-0.117916 0.246582 0.0 
-0.0169096 -0.0324838 0.0 
0.0890022 -0.521345 0.0 
0.0323967 -0.0199838 0.0 
0.055927 -0.513213 0.0 
-0.0715927 0.17283 0.0 
-0.164766 -0.155625 0.0 
-0.0192212 0.131565 0.0 
-3.47981e-71 4.47152e-71 0.0 
-1.29313e-37 1.12221e-37 0.0 
0.255332 0.149026 0.0 
0.0273688 -0.0170985 0.0 
-2.15884e-16 -3.32126e-17 0.0 
0.0315058 -0.444718 0.0 
0.0166014 0.0885671 0.0 
-0.0364058 0.199357 0.0 
0.0250104 0.0994262 0.0 
-4.68213e-38 4.29007e-38 0.0 
-1.23583e-36 1.07248e-36 0.0 
0.133116 -0.284186 0.0 
-0.100036 -0.12834 0.0 
0.00568643 0.0809905 0.0 
-0.156683 0.213981 0.0 
0.0105545 0.125907 0.0 
-0.0026435 0.0725424 0.0 
0.0467728 -0.00378803 0.0 
0.111985 -0.290374 0.0 
-0.118318 0.271486 0.0 
0.0949623 0.0721964 0.0 
-0.0683894 0.189212 0.0 
-0.133027 0.199165 0.0 
3.50272e-51 -1.07932e-50 0.0 
-1.38205e-84 9.39047e-85 0.0 
0.0313268 -0.0537182 0.0 
-0.0835442 0.241607 0.0 
0.0384264 0.0811528 0.0 
0.121004 0.0654163 0.0 
-0.0421132 0.168449 0.0 
0.0322886 -0.0288564 0.0 
0.0922971 -0.352646 0.0 
-0.125779 0.228301 0.0 
2.88329e-59 -9.5638e-60 0.0 
0.00952515 0.0125522 0.0 
0.00281823 0.114606 0.0 
-0.000984047 0.153744 0.0 
-4.89302e-18 5.07482e-18 0.0 
0.566677 -0.0962618 0.0 
-2.37483e-17 1.40737e-16 0.0 
-2.26152e-34 -3.96199e-35 0.0 
-0.121879 0.260528 0.0 
-0.101316 0.264657 0.0 
-0.0636802 0.207285 0.0 
0.07265 -0.295176 0.0 
-0.110369 -0.155674 0.0 
-0.138057 -0.20601 0.0 
0.00443069 0.00341701 0.0 
0.703626 -0.103673 0.0 
0.54903 -0.329726 0.0 
-2.58072e-21 1.5562e-21 0.0 
0.11794 -0.00274585 0.0 
0.00554161 -0.101455 0.0 
3.30494e-58 -1.09624e-58 0.0 
-0.134209 0.212654 0.0 
0.021788 0.000326587 0.0 
-0.113299 -0.109269 0.0 
-0.117962 0.0173135 0.0 
0.00853821 0.042769 0.0 
0.232504 0.19897 0.0 
-9.58253e-38 1.21871e-37 0.0 
-0.0641101 -0.0678106 0.0 
-0.0911157 -0.0883002 0.0 
-0.0913504 -0.0685201 0.0 
0.66769 -0.164753 0.0 
4.93162e-08 -1.08836e-07 0.0 
0.139523 0.0855346 0.0 
-0.00215291 0.117143 0.0 
0.139108 -0.154507 0.0 
-0.176866 -0.0867167 0.0 
-0.0384652 0.00267837 0.0 
-0.0928282 -0.108706 0.0 
0.0306315 0.00768359 0.0 
0.00810367 0.00798983 0.0 
0.184036 0.22009 0.0 
0.0055828 0.00698446 0.0 
-3.49233e-21 3.43843e-21 0.0 
0.000785104 0.00521497 0.0 
0.00509073 0.0114945 0.0 
0.779702 0.0280252 0.0 
-0.11731 -0.178231 0.0 
0.00649126 -0.000833009 0.0 
-4.72127e-35 4.09655e-35 0.0 
0.0244413 0.0541875 0.0 
0.000650119 0.00161671 0.0 
0.114806 0.140824 0.0 
-0.109729 -0.209828 0.0 
-1.01901e-127 6.53328e-129 0.0 
0.047771 -0.0247809 0.0 
-1.26008e-71 1.61918e-71 0.0 
-2.59101e-75 3.15945e-75 0.0 
-0.00890343 -0.0879066 0.0 
-8.05469e-19 4.14386e-18 0.0 
-0.0155358 -0.00418792 0.0 
-3.08157e-16 -7.87877e-17 0.0 
0.0528986 0.0159205 0.0 
-6.25493e-05 0.0103304 0.0 
0.431275 -0.0984547 0.0 
-2.84995e-16 -6.59198e-17 0.0 
-2.14275e-42 1.98396e-42 0.0 
0.157202 0.129211 0.0 
-0.00139792 0.0150059 0.0 
0.00390681 0.0224235 0.0 
0.0923316 0.0333317 0.0 
-0.00300156 -0.00960184 0.0 
0.0307678 0.0436677 0.0 
0.0231086 0.0717902 0.0 
-0.206488 -0.0934973 0.0 
-1.73359e-17 1.09282e-16 0.0 
-0.0016616 0.00433425 0.0 
-0.000105171 -0.000197606 0.0 
2.88729e-05 6.63567e-06 0.0 
0.477234 0.00620114 0.0 
0.00446341 0.0292704 0.0 
0.341812 0.159759 0.0 
-0.124554 0.0647811 0.0 
0.248251 -0.500634 0.0 
-0.160919 -0.0182293 0.0 
0.00138855 0.0136866 0.0 
0.102853 0.0317545 0.0 
-0.00982869 0.00107899 0.0 
0.0334746 0.0151543 0.0 
-1.62138e-25 2.2852e-25 0.0 
0.033497 -0.0270196 0.0 
-0.000545475 0.0189679 0.0 
-1.00496e-16 9.0949e-17 0.0 
-0.00123096 0.02241 0.0 
0.00327082 0.0374229 0.0 
0.00465583 0.0164828 0.0 
0.000505995 -0.000206275 0.0 
0.000573665 -0.469225 0.0 
0.109857 0.223339 0.0 
0.0502979 0.00886752 0.0 
0.0508671 -0.0137607 0.0 
0.0192203 0.0209131 0.0 
0.0408107 0.0332316 0.0 
0.000263006 -0.000642522 0.0 
-0.191256 0.0472612 0.0 
-0.169622 -0.0608816 0.0 
-6.86552e-72 8.31262e-72 0.0 
0.00215052 -0.00525426 0.0 
0.000641391 0.0468556 0.0 
0.176239 -0.0742465 0.0 
0.0261396 0.0740063 0.0 
-0.00135792 0.0328838 0.0 
-0.117899 0.0804066 0.0 
0.0358785 -0.0297314 0.0 
0.0773864 0.0227243 0.0 
0.0270963 0.128158 0.0 
0.0464935 0.0267562 0.0 
0.10596 0.16249 0.0 
0.0473451 -0.0616412 0.0 
-0.0318213 -0.0234996 0.0 
0.0563562 0.000392466 0.0 
0.0398795 -0.0312418 0.0 
-0.0237759 0.00586495 0.0 
0.0525275 0.0061774 0.0 
-0.0212881 -0.0795606 0.0 
-0.0212838 -0.0682432 0.0 
0.259832 0.0550051 0.0 
-8.42482e-17 1.96017e-18 0.0 
0.0432148 -0.0262075 0.0 
0.108948 0.0212357 0.0 
0.093433 0.034537 0.0 
-0.0438836 0.222165 0.0 
0.0448274 0.0625104 0.0 
0.0401029 -0.120726 0.0 
0.0222367 0.0403798 0.0 
-0.00948773 -0.0408889 0.0 
0.0535543 -0.0301156 0.0 
0.0291483 -0.0101483 0.0 
0.110845 0.0342658 0.0 
0.0481564 0.0221954 0.0 
0.0173837 -0.51853 0.0 
0.00843906 0.0102454 0.0 
0.106997 0.206222 0.0 
-0.0100475 -0.0497161 0.0 
-0.0149311 0.144778 0.0 
0.0801948 -0.0354433 0.0 
0.460105 0.134987 0.0 
0.0300398 0.0552437 0.0 
-0.0772809 0.20948 0.0 
0.0589932 0.0198383 0.0 
0.00479051 -0.0185851 0.0 
-1.33263e-16 1.13844e-16 0.0 
0.00196044 -0.200619 0.0 
1.66883e-55 -3.04116e-55 0.0 
0.0528335 -0.0324889 0.0 
-0.00324737 -0.0452444 0.0 
-0.031981 0.0215585 0.0 
0.00260533 -0.0779072 0.0 
0.0156849 -0.0545035 0.0 
0.116986 -0.16122 0.0 
0.0603387 0.0382214 0.0 
-2.48417e-34 1.5222e-33 0.0 
0.172151 -0.348154 0.0 
0.0349198 0.0216872 0.0 
0.00214212 0.00848805 0.0 
0.00321636 -0.00127945 0.0 
-0.197025 -0.0561366 0.0 
0.012941 -0.013813 0.0 
0.625215 0.107954 0.0 
0.0256171 0.110077 0.0 
-7.74164e-81 5.25788e-81 0.0 
-0.197162 -0.0199921 0.0 
0.0101384 -0.00456306 0.0 
-0.0425048 -0.0666297 0.0 
0.012825 -0.284057 0.0 
0.0188401 0.00986761 0.0 
0.0489932 -0.0352776 0.0 
0.0273432 -0.0790194 0.0 
0.0553745 -0.0236779 0.0 
-2.52544e-18 2.21245e-17 0.0 
0.0522855 -0.0347776 0.0 
-6.0518e-17 1.36701e-16 0.0 
0.0716804 -0.0342003 0.0 
-0.00234253 -0.143471 0.0 
0.063677 -0.0522161 0.0 
-1.18737e-36 1.08453e-36 0.0 
0.0630701 -0.0195925 0.0 
0.1358 -0.211382 0.0 
0.0771357 -0.141289 0.0 
0.457047 0.0635088 0.0 
-0.129399 0.137978 0.0 
0.060674 -0.0210495 0.0 
-0.0937946 0.0421829 0.0 
0.0892657 -0.0880369 0.0 
-3.22492e-34 5.57708e-34 0.0 
0.0417554 -0.0192319 0.0 
-2.3925e-34 1.11645e-33 0.0 
0.0270312 0.0198494 0.0 
-0.0591851 -0.0518618 0.0 
0.257132 -0.269342 0.0 
0.0361859 -0.00574428 0.0 
6.10318e-06 -1.491e-05 0.0 
0.378193 -0.0287976 0.0 
0.0384824 -0.0185457 0.0 
0.0184886 0.0546724 0.0 
-0.0538598 -0.0374226 0.0 
0.0384128 -0.00422889 0.0 
-0.0222323 -0.0287235 0.0 
0.0493124 -0.034208 0.0 
0.0164508 -0.140398 0.0 
-1.50524e-66 1.07479e-66 0.0 
0.000393329 -0.000960899 0.0 
-0.028975 -0.0369938 0.0 
-1.85334e-16 -3.02877e-17 0.0 
-0.0268185 -0.00722231 0.0 
-0.0174243 0.0192469 0.0 
-0.00323362 0.0201107 0.0 
0.069577 0.0181916 0.0 
-0.0393706 0.179542 0.0 
0.0746861 -0.178625 0.0 
0.0514559 -0.0328674 0.0 
-0.166473 0.041682 0.0 
0.0426569 -0.147461 0.0 
0.0052262 -0.0112503 0.0 
-0.0113315 0.0106642 0.0 
0.00048978 0.0135702 0.0 
0.149748 -0.107022 0.0 
-0.0111294 -0.131337 0.0 
0.112962 -0.0268563 0.0 
-2.40021e-16 -6.22645e-17 0.0 
0.289263 0.195949 0.0 
-1.65832e-72 2.1309e-72 0.0 
-0.171685 0.0152077 0.0 
-0.0434232 -0.017256 0.0 
0.0149586 -0.0080104 0.0 
0.0425486 -0.0262392 0.0 
-0.0549826 0.000743143 0.0 
0.0556669 -0.00475642 0.0 
0.264281 -0.372603 0.0 
-0.00467372 -0.00177155 0.0 
-1.22773e-16 7.3214e-18 0.0 
0.0551187 0.195947 0.0 
0.052818 -0.00789967 0.0 
-0.0183995 -0.167569 0.0 
-0.0278702 -0.0292167 0.0 
-3.7039e-34 8.76274e-34 0.0 
-0.0308698 0.00954911 0.0 
-0.0219129 -0.0387811 0.0 
-0.137878 0.106196 0.0 
-0.218698 0.00181702 0.0 
-0.181829 -0.00462701 0.0 
-0.0487608 -0.0583341 0.0 
0.109374 -0.103164 0.0 
-0.155793 -0.101541 0.0 
0.0672221 -0.0843003 0.0 
-0.174499 0.223261 0.0 
0.376669 0.179514 0.0 
0.363416 -0.51166 0.0 
0.17417 0.0139944 0.0 
0.0287917 -0.0342025 0.0 
7.9074e-05 -0.000166341 0.0 
-1.02877e-44 2.24128e-44 0.0 
-0.0659009 0.129538 0.0 
0.204902 0.13849 0.0 
-0.076104 0.0354579 0.0 
0.0298735 -0.0232655 0.0 
-0.0457236 -0.0822204 0.0 
0.205189 -0.491197 0.0 
0.0325138 -0.327785 0.0 
0.0458905 -0.0302937 0.0 
0.0492257 -0.0326104 0.0 
-3.41616e-17 1.27335e-16 0.0 
0.0172869 -0.0928913 0.0 
0.0575839 -0.124729 0.0 
0.0722207 0.124279 0.0 
0.0992873 0.0158007 0.0 
-0.242375 -0.0974474 0.0 
-0.0243714 -0.172326 0.0 
0.0336673 -0.0278269 0.0 
-0.0366801 -0.0379365 0.0 
0.114405 -0.0327564 0.0 
0.16624 0.21573 0.0 
-0.010201 0.0221799 0.0 
0.000840895 -0.000992884 0.0 
-2.27715e-16 2.55233e-18 0.0 
0.0206368 -0.00683729 0.0 
0.00387071 0.00624095 0.0 
0.109327 0.183876 0.0 
0.015177 0.0783677 0.0 
0.200643 0.194982 0.0 
0.0385494 0.100793 0.0 
0.0123774 0.0907756 0.0 
-0.202422 0.0840515 0.0 
-0.0253328 0.0385681 0.0 
-1.10011e-36 9.54701e-37 0.0 
0.119459 -0.073606 0.0 
0.19324 0.161837 0.0 
-0.0941206 0.252915 0.0 
0.0036977 -0.122452 0.0 
-0.00821953 0.0112425 0.0 
-0.0333719 -0.00742687 0.0 
0.0273923 -0.0174291 0.0 
-2.56379e-26 3.61345e-26 0.0 
-0.0332744 -0.045104 0.0 
0.00446213 -0.0328697 0.0 
-0.0280043 -0.0152362 0.0 
-0.00797426 0.0458174 0.0 
0.0357461 0.0340267 0.0 
0.0104342 -0.401343 0.0 
0.0405886 -0.173977 0.0 
-0.0712665 0.235552 0.0 
-0.0501541 -0.0229501 0.0 
-0.0947761 0.280622 0.0 
0.0800537 -0.153509 0.0 
-0.177048 -0.182005 0.0 
0.0415349 -0.0444102 0.0 
-0.0343225 -0.0635588 0.0 
0.35599 -0.157445 0.0 
-0.0402837 -0.0479077 0.0 
-8.76248e-34 2.33586e-33 0.0 
-0.0572718 0.280628 0.0 
0.087617 -0.0150404 0.0 
-0.175236 -0.0353478 0.0 
0.00902469 -0.0259609 0.0 
-0.0287441 0.278073 0.0 
0.0543913 -0.0268174 0.0 
-0.00551692 -0.0233733 0.0 
0.0702411 -0.159947 0.0 
-4.37763e-21 2.38646e-21 0.0 
0.184598 -0.461252 0.0 
-0.0285663 -0.178506 0.0 
0.0483628 -0.0816823 0.0 
-0.0608174 -0.030459 0.0 
0.289557 0.00800565 0.0 
0.0867638 -0.161316 0.0 
0.0663282 -0.0368802 0.0 
-5.11315e-22 5.19309e-23 0.0 
4.49602e-54 -3.21994e-53 0.0 
-0.006997 0.03231 0.0 
0.0357471 0.265425 0.0 
-6.19953e-72 2.53048e-72 0.0 
3.92955e-58 -1.30342e-58 0.0 
-0.00862138 0.0144674 0.0 
0.0198156 -0.0202655 0.0 
1.45147e-60 -4.8145e-61 0.0 
0.00257251 -0.0011622 0.0 
0.0142881 0.098759 0.0 
-0.0146002 -0.015716 0.0 
-0.00361481 -0.0360136 0.0 
-1.61239e-33 3.68744e-33 0.0 
0.036079 -0.0341382 0.0 
0.296939 0.180741 0.0 
0.0116574 -0.133779 0.0 
-1.623e-07 -1.68469e-07 0.0 
-0.0107011 0.0115285 0.0 
-0.0496334 -0.0106774 0.0 
-7.94754e-42 6.97423e-42 0.0 
0.0363133 -0.13771 0.0 
0.122726 0.235712 0.0 
-0.174194 -0.0890615 0.0 
0.0513995 0.0141069 0.0 
-0.00918638 0.0185867 0.0 
0.0617949 -0.0325967 0.0 
0.0389713 0.00688736 0.0 
0.37268 0.16921 0.0 
-0.022006 0.0524267 0.0 
0.04267 0.11766 0.0 
0.00483339 -0.05077 0.0 
-0.145487 -0.00331494 0.0 
-0.116146 0.167514 0.0 
0.0745333 -0.0361167 0.0 
0.0429031 -0.147968 0.0 