<VTKFile type="UnstructuredGrid" version="0.1" byte_order="LittleEndian">
  <UnstructuredGrid>
    <Piece NumberOfPoints="19158" NumberOfCells="38227">
      <Points>
        <DataArray type = "Float64" NumberOfComponents="3" format="ascii">
5.59488 4.80024 0.0 
4.13527 3.73755 0.0 
4.28851 3.36772 0.0 
4.57599 3.3325 0.0 
4.06277 3.90425 0.0 
4.0544 3.92338 0.0 
4.09586 3.82692 0.0 
4.06434 3.89731 0.0 
5.89744 3.92335 0.0 
4.52724 3.3317 0.0 
4.51196 3.32922 0.0 
4.45628 3.29691 0.0 
4.13045 3.75025 0.0 
4.52502 3.28742 0.0 
4.29321 3.35812 0.0 
5.37829 4.94978 0.0 
4.10526 3.80691 0.0 
4.46768 3.28005 0.0 
5.85931 3.81435 0.0 
4.05121 3.93021 0.0 
4.33849 3.32212 0.0 
5.22948 4.88262 0.0 
4.11303 3.79247 0.0 
4.33214 3.32146 0.0 
4.09416 3.83624 0.0 
4.35373 3.31271 0.0 
4.07251 3.87864 0.0 
4.37115 3.31379 0.0 
4.0989 3.82676 0.0 
4.52663 3.29682 0.0 
4.61243 3.34852 0.0 
4.06991 3.88515 0.0 
4.6121 3.34494 0.0 
4.09757 3.82149 0.0 
5.18543 4.65779 0.0 
4.4636 3.29618 0.0 
4.46658 3.2902 0.0 
4.44834 3.17726 0.0 
4.51739 3.31039 0.0 
4.45214 3.12259 0.0 
4.31732 3.33507 0.0 
4.47525 3.23916 0.0 
4.43629 3.1041 0.0 
4.0627 3.90219 0.0 
5.43526 4.8683 0.0 
5.35596 4.64759 0.0 
4.484 3.25501 0.0 
4.47297 3.28627 0.0 
4.50461 3.29425 0.0 
5.74942 5.02852 0.0 
4.53005 3.3062 0.0 
4.08506 3.854 0.0 
4.50613 3.29898 0.0 
4.43319 3.30925 0.0 
4.51642 3.31276 0.0 
4.52495 3.29164 0.0 
4.36228 3.31294 0.0 
4.11901 3.77834 0.0 
5.60242 4.98563 0.0 
4.56718 3.33203 0.0 
4.06319 3.90806 0.0 
4.05935 3.91531 0.0 
4.28227 3.37401 0.0 
4.46016 3.14947 0.0 
4.39819 3.30072 0.0 
4.52022 3.30921 0.0 
4.12288 3.76665 0.0 
4.47855 3.31103 0.0 
4.06921 3.88919 0.0 
4.35896 3.32864 0.0 
5.58271 5.03158 0.0 
4.4486 3.13905 0.0 
4.42407 3.1041 0.0 
4.06431 3.90399 0.0 
4.06571 3.89773 0.0 
4.10414 3.81259 0.0 
4.46637 3.20701 0.0 
4.43842 3.12989 0.0 
4.4711 3.25344 0.0 
4.51846 3.29088 0.0 
4.49717 3.2783 0.0 
4.42823 3.11712 0.0 
4.45622 3.19139 0.0 
4.28765 3.36393 0.0 
5.44883 4.94795 0.0 
4.33596 3.3646 0.0 
4.49987 3.28738 0.0 
4.06768 3.90101 0.0 
4.45608 3.30535 0.0 
4.48037 3.26501 0.0 
5.69064 4.98466 0.0 
5.5406 4.92032 0.0 
5.58865 4.95913 0.0 
4.5018 3.25051 0.0 
4.04447 3.95113 0.0 
5.76791 4.3271 0.0 
5.27018 4.85455 0.0 
4.52306 3.30012 0.0 
4.54057 3.30327 0.0 
4.46002 3.2393 0.0 
4.53217 3.31522 0.0 
5.30781 4.8839 0.0 
5.64338 4.16282 0.0 
4.45508 3.1089 0.0 
5.53794 4.87279 0.0 
5.67629 4.22655 0.0 
5.3275 4.88676 0.0 
4.53886 3.32159 0.0 
5.58897 4.3835 0.0 
5.5368 4.9422 0.0 
5.44591 4.91529 0.0 
4.62176 3.34986 0.0 
4.2818 3.38116 0.0 
5.4096 4.92858 0.0 
4.43263 3.09275 0.0 
4.5513 3.32942 0.0 
4.3414 3.33081 0.0 
5.38809 4.91122 0.0 
4.55624 3.3214 0.0 
5.45407 4.93343 0.0 
5.82963 4.8387 0.0 
5.85439 5.03555 0.0 
4.46296 3.2242 0.0 
5.6733 4.2962 0.0 
4.47043 3.18892 0.0 
4.40248 3.31098 0.0 
5.89691 3.90498 0.0 
4.52898 3.31118 0.0 
4.41223 3.31024 0.0 
5.36557 4.8922 0.0 
5.42347 4.91485 0.0 
4.46889 3.27306 0.0 
4.53654 3.30033 0.0 
5.74656 3.51101 0.0 
4.41443 3.11324 0.0 
5.29471 4.82589 0.0 
5.27452 4.76147 0.0 
4.56017 3.33207 0.0 
4.54562 3.31831 0.0 
5.24502 4.77369 0.0 
5.38911 4.86658 0.0 
5.46776 4.87598 0.0 
4.54673 3.31253 0.0 
5.50149 4.91908 0.0 
5.47641 4.47159 0.0 
4.48289 3.14075 0.0 
5.39886 4.88095 0.0 
5.66558 4.92659 0.0 
4.51037 3.29393 0.0 
5.55719 4.96564 0.0 
4.3734 3.32497 0.0 
5.87224 4.86906 0.0 
4.47966 3.27302 0.0 
5.36708 4.86692 0.0 
4.49382 3.28239 0.0 
5.6389 4.89568 0.0 
4.49513 3.29186 0.0 
4.50173 3.30145 0.0 
5.33342 4.90121 0.0 
5.48459 4.95971 0.0 
5.34681 4.93559 0.0 
4.44825 3.15946 0.0 
5.54189 4.25411 0.0 
4.34837 3.33627 0.0 
4.46323 3.31055 0.0 
4.5736 3.33581 0.0 
5.86588 4.3271 0.0 
5.84425 4.39452 0.0 
5.78155 4.173 0.0 
4.51142 3.30623 0.0 
4.32268 3.35008 0.0 
4.45382 3.25962 0.0 
4.40317 3.10901 0.0 
4.5115 3.29876 0.0 
5.55934 4.50176 0.0 
5.61869 4.46409 0.0 
5.68117 4.10336 0.0 
4.41694 3.09579 0.0 
5.76842 3.84322 0.0 
5.70578 5.04725 0.0 
5.57525 4.93921 0.0 
6.10711 4.03303 0.0 
5.69521 3.84055 0.0 
4.53434 3.32803 0.0 
5.77662 3.87236 0.0 
4.49047 3.28647 0.0 
4.62371 3.35472 0.0 
4.48833 3.27464 0.0 
6.13855 4.01444 0.0 
5.4481 4.85439 0.0 
5.73944 3.85825 0.0 
5.6214 4.92012 0.0 
5.82793 4.91666 0.0 
5.30974 4.78687 0.0 
4.50893 3.30804 0.0 
5.27397 4.80776 0.0 
4.51942 3.30566 0.0 
5.65232 4.03845 0.0 
4.48543 3.21685 0.0 
4.4689 3.3014 0.0 
6.16257 4.07512 0.0 
4.47255 3.29154 0.0 
4.50732 3.24566 0.0 
4.34422 3.32421 0.0 
5.43205 4.82837 0.0 
4.39596 3.33382 0.0 
4.47772 3.30016 0.0 
5.29817 4.89677 0.0 
4.51491 3.30308 0.0 
5.72316 4.9346 0.0 
6.18869 4.02665 0.0 
6.59089 4.04191 0.0 
6.06937 4.04593 0.0 
5.4896 4.86632 0.0 
5.709 3.87984 0.0 
5.41966 4.92333 0.0 
4.46952 3.2663 0.0 
4.47713 3.2953 0.0 
4.0582 3.93065 0.0 
4.41846 3.33137 0.0 
4.48521 3.29708 0.0 
5.16802 4.82725 0.0 
4.42609 3.12859 0.0 
4.42191 3.14193 0.0 
4.51431 3.27103 0.0 
5.4305 4.73412 0.0 
5.78691 3.95561 0.0 
4.43611 3.14958 0.0 
5.54481 4.84395 0.0 
4.33479 3.34515 0.0 
6.48901 4.15498 0.0 
4.52569 3.31582 0.0 
4.37515 3.30849 0.0 
6.28636 4.16769 0.0 
5.40388 4.89824 0.0 
6.13749 4.19546 0.0 
6.15484 4.26116 0.0 
4.55987 3.32409 0.0 
6.65244 4.73457 0.0 
5.94384 4.87862 0.0 
5.74505 3.94283 0.0 
4.45628 3.2512 0.0 
5.26172 4.81762 0.0 
4.52237 3.29544 0.0 
4.49121 3.32024 0.0 
4.52283 3.31838 0.0 
4.4143 3.29603 0.0 
4.48428 3.30269 0.0 
4.36532 3.34484 0.0 
6.25179 4.20412 0.0 
5.81296 3.92848 0.0 
4.52994 3.30289 0.0 
4.52587 3.304 0.0 
5.9763 4.08518 0.0 
4.34511 3.31378 0.0 
6.58468 4.39582 0.0 
5.2957 4.86906 0.0 
5.68485 4.79757 0.0 
6.43359 4.24213 0.0 
6.57936 4.79517 0.0 
6.70013 4.0012 0.0 
4.46647 3.32181 0.0 
4.4895 3.26759 0.0 
5.90159 4.02565 0.0 
6.44962 4.33952 0.0 
6.33322 4.23995 0.0 
4.50118 3.29749 0.0 
4.53162 3.29922 0.0 
4.51565 3.30683 0.0 
4.48738 3.3139 0.0 
4.52731 3.30059 0.0 
4.49549 3.29857 0.0 
4.35391 3.31914 0.0 
5.86102 3.95004 0.0 
5.91201 4.1961 0.0 
5.88135 3.98695 0.0 
6.55019 4.48744 0.0 
6.21668 4.14066 0.0 
5.89283 4.13261 0.0 
4.3277 3.32737 0.0 
4.31137 3.35327 0.0 
6.71659 4.3272 0.0 
6.18871 4.10743 0.0 
4.51371 3.30942 0.0 
4.54059 3.31235 0.0 
5.82296 4.10306 0.0 
4.49537 3.19962 0.0 
4.55059 3.31603 0.0 
4.53468 3.3038 0.0 
5.77142 4.94162 0.0 
6.79227 4.38533 0.0 
4.50398 3.31146 0.0 
4.4156 3.12772 0.0 
4.51114 3.30295 0.0 
4.51366 3.24854 0.0 
4.47588 3.22193 0.0 
4.48947 3.24404 0.0 
4.48078 3.31632 0.0 
4.34957 3.32492 0.0 
4.44676 3.10373 0.0 
4.51074 3.2351 0.0 
6.06796 4.10086 0.0 
4.47205 3.15635 0.0 
5.75074 3.8996 0.0 
4.33059 3.33903 0.0 
4.51413 3.27733 0.0 
4.46112 3.13196 0.0 
4.49925 3.29391 0.0 
4.43694 3.2768 0.0 
4.3264 3.33418 0.0 
4.52476 3.31063 0.0 
5.39389 4.90393 0.0 
5.34452 4.87589 0.0 
6.65829 4.29099 0.0 
4.50511 3.28078 0.0 
6.77292 4.18857 0.0 
4.55336 3.3195 0.0 
4.50938 3.27501 0.0 
4.52228 3.30842 0.0 
4.52054 3.28694 0.0 
4.50742 3.21762 0.0 
6.06317 4.16038 0.0 
4.50724 3.30382 0.0 
6.10202 4.15328 0.0 
4.34009 3.33673 0.0 
4.38991 3.32873 0.0 
4.49605 3.23977 0.0 
4.47022 3.13946 0.0 
4.5386 3.31745 0.0 
5.95688 4.05021 0.0 
6.46165 4.07086 0.0 
4.42702 3.3015 0.0 
6.22295 4.07743 0.0 
4.37514 3.33617 0.0 
4.49967 3.3136 0.0 
5.89148 3.96412 0.0 
5.28677 4.8538 0.0 
4.51708 3.28209 0.0 
4.48239 3.23322 0.0 
5.34111 4.86304 0.0 
4.46694 3.28528 0.0 
4.49542 3.21303 0.0 
5.91845 3.93979 0.0 
5.91031 3.99575 0.0 
4.55003 3.32243 0.0 
4.43731 3.33103 0.0 
5.9406 4.01756 0.0 
4.54411 3.33015 0.0 
5.84863 3.91906 0.0 
4.39985 3.32167 0.0 
4.46399 3.30512 0.0 
6.11063 4.09443 0.0 
4.44282 3.11439 0.0 
4.51147 3.28171 0.0 
4.48183 3.20476 0.0 
4.49807 3.22548 0.0 
5.83574 3.99603 0.0 
4.51484 3.28657 0.0 
4.50308 3.23557 0.0 
4.39736 3.31668 0.0 
4.45659 3.30999 0.0 
4.47624 3.2797 0.0 
4.49596 3.17932 0.0 
6.34792 4.05653 0.0 
4.51481 3.29738 0.0 
4.53514 3.31843 0.0 
4.52707 3.32271 0.0 
5.78542 3.91004 0.0 
6.01069 4.0784 0.0 
5.85197 4.15731 0.0 
4.50916 3.26653 0.0 
4.52244 3.2821 0.0 
4.53947 3.30678 0.0 
4.39176 3.31359 0.0 
4.38143 3.31371 0.0 
5.98096 4.03569 0.0 
4.43032 3.31343 0.0 
4.51888 3.27636 0.0 
4.53849 3.30973 0.0 
5.93649 4.10981 0.0 
5.87943 3.93497 0.0 
6.00996 4.03537 0.0 
4.51579 3.29434 0.0 
4.52161 3.31256 0.0 
4.43637 3.30389 0.0 
4.5684 3.32815 0.0 
4.5498 3.31903 0.0 
4.50838 3.25649 0.0 
4.48558 3.28049 0.0 
5.24258 4.82173 0.0 
4.49492 3.25527 0.0 
5.96171 3.99684 0.0 
5.74874 4.10706 0.0 
4.45236 3.28156 0.0 
5.91649 3.97207 0.0 
4.51953 3.29871 0.0 
4.52049 3.31517 0.0 
4.49909 3.30399 0.0 
5.8159 3.89913 0.0 
5.86603 4.02275 0.0 
4.53461 3.30787 0.0 
4.52024 3.26911 0.0 
5.71727 4.04528 0.0 
5.31745 4.86226 0.0 
4.50052 3.27076 0.0 
4.52662 3.31311 0.0 
4.40527 3.32714 0.0 
4.50296 3.32395 0.0 
4.51865 3.25754 0.0 
4.5417 3.32629 0.0 
4.32071 3.33907 0.0 
5.88139 4.06866 0.0 
4.45312 3.29463 0.0 
4.50408 3.30525 0.0 
4.40063 3.30645 0.0 
6.26239 4.03904 0.0 
6.03682 4.06742 0.0 
4.51408 3.26203 0.0 
5.95504 4.17499 0.0 
4.50541 3.28841 0.0 
4.54698 3.32492 0.0 
4.53443 3.31175 0.0 
6.09604 4.22524 0.0 
4.61516 4.69661 0.0 
5.58502 4.92241 0.0 
4.46452 3.11588 0.0 
4.63212 4.66036 0.0 
4.66478 4.58496 0.0 
4.50902 3.28546 0.0 
4.54601 4.84061 0.0 
4.51229 3.29035 0.0 
4.6537 4.61716 0.0 
4.54362 3.32063 0.0 
4.50389 3.26243 0.0 
4.55406 3.32425 0.0 
4.53053 3.30895 0.0 
5.33972 4.82727 0.0 
4.48483 3.16444 0.0 
4.58318 4.75545 0.0 
4.65947 4.6022 0.0 
4.63956 4.64457 0.0 
4.60156 4.64616 0.0 
4.67091 4.5653 0.0 
4.43401 3.30015 0.0 
4.34712 3.31836 0.0 
4.48397 3.18586 0.0 
4.49546 3.26434 0.0 
4.56295 3.32769 0.0 
4.47419 3.30368 0.0 
4.61733 4.62219 0.0 
4.65217 4.56302 0.0 
4.47364 3.12564 0.0 
4.50147 3.27828 0.0 
5.36539 4.95475 0.0 
5.80847 3.70942 0.0 
5.33259 4.87842 0.0 
4.52523 3.30736 0.0 
4.52083 3.30347 0.0 
6.15078 4.13559 0.0 
5.35725 4.87328 0.0 
5.36452 4.84779 0.0 
4.47363 3.17316 0.0 
4.5372 3.31448 0.0 
5.83635 3.81404 0.0 
5.87364 3.82549 0.0 
6.49271 4.83337 0.0 
4.45355 3.30082 0.0 
4.60391 4.71743 0.0 
4.67174 4.57823 0.0 
[...]
<PointData>
  <DataArray type = "Float64" Name="Vitesse" NumberOfComponents="3" format="ascii">
-0.208991 -0.29318 0.0 
-0.000383271 -0.000212425 0.0 
3.36035e-21 6.08626e-23 0.0 
3.95186e-21 1.6304e-21 0.0 
-4.88722e-05 -0.000121817 0.0 
9.07698e-05 -0.000373406 0.0 
-0.000376658 3.46431e-05 0.0 
-9.23549e-05 -5.58251e-05 0.0 
-0.200193 -0.203689 0.0 
-7.16825e-24 -8.96822e-23 0.0 
-1.21898e-22 -1.30834e-22 0.0 
-0.00352864 0.00258003 0.0 
-0.000799727 -0.00044107 0.0 
0.000308912 0.000359609 0.0 
4.6508e-21 -3.01917e-22 0.0 
0.213472 -0.0376934 0.0 
-0.000290151 3.19784e-05 0.0 
-0.00349236 0.00496377 0.0 
0.0573905 -0.2729 0.0 
0.000176439 -0.000488094 0.0 
-0.00666879 0.00344471 0.0 
0.197879 -0.0420764 0.0 
-0.000272158 -2.98043e-05 0.0 
-0.0160528 0.00876243 0.0 
-0.000368104 2.66159e-05 0.0 
-0.0155042 0.00568801 0.0 
-0.000162228 5.02704e-05 0.0 
-0.00819573 0.00302026 0.0 
-0.000386422 5.01528e-05 0.0 
0.000322659 0.000581906 0.0 
5.73605e-21 2.1571e-21 0.0 
-0.000137866 1.37566e-05 0.0 
-5.59414e-05 7.60833e-06 0.0 
-0.00037984 3.84638e-05 0.0 
-0.0388235 -0.271413 0.0 
-0.0025116 0.00219279 0.0 
-0.00310207 0.00320046 0.0 
0.01415 0.0323855 0.0 
4.7256e-06 0.000116002 0.0 
0.0286817 0.047913 0.0 
-0.00284717 0.00153985 0.0 
0.0017672 0.0103012 0.0 
0.010617 0.0819729 0.0 
-6.83073e-05 -9.34444e-05 0.0 
-0.0638862 -0.171369 0.0 
-0.121334 -0.271003 0.0 
0.000447556 0.00651892 0.0 
-0.00243063 0.00366268 0.0 
0.000388898 0.00150077 0.0 
0.195908 -0.303158 0.0 
0.000175366 0.00106139 0.0 
-0.000263166 8.19419e-05 0.0 
0.000322418 0.00102004 0.0 
-0.000439447 0.000240095 0.0 
1.49336e-09 3.66584e-08 0.0 
0.000324641 0.000488338 0.0 
-0.0101479 0.00330705 0.0 
-0.00044016 -0.000162337 0.0 
0.126862 -0.229092 0.0 
2.94301e-21 8.55991e-22 0.0 
2.23104e-06 -0.000186849 0.0 
4.04082e-05 -0.00027213 0.0 
2.47819e-21 5.39339e-22 0.0 
0.0267856 0.0317894 0.0 
-0.0171707 0.00777899 0.0 
2.79815e-05 0.000413995 0.0 
-0.00061376 -0.000283943 0.0 
-1.71293e-21 -6.94146e-22 0.0 
-0.000114445 -1.35338e-05 0.0 
5.59529e-21 -3.33823e-21 0.0 
0.31746 -0.173991 0.0 
0.0259027 0.0448201 0.0 
-0.0029057 0.101155 0.0 
-3.19341e-05 -0.000133185 0.0 
-7.60444e-05 -7.11288e-05 0.0 
-0.000328198 3.50945e-05 0.0 
0.0081498 0.0179128 0.0 
0.0222375 0.0589856 0.0 
-0.00116881 0.00900654 0.0 
0.000511669 0.000852667 0.0 
-1.17592e-05 0.00272223 0.0 
0.0108939 0.0812466 0.0 
0.011218 0.0250034 0.0 
3.87955e-21 1.26376e-22 0.0 
0.128342 -0.106396 0.0 
4.60393e-22 -2.82457e-22 0.0 
0.000120321 0.00192479 0.0 
-1.73923e-05 -0.000128781 0.0 
-0.000353355 0.000247703 0.0 
-0.00100178 0.00587128 0.0 
0.0741624 -0.293738 0.0 
-0.0301296 -0.217739 0.0 
0.0484273 -0.233809 0.0 
0.002442 0.00351145 0.0 
0.000689169 -0.00105609 0.0 
-0.592209 -0.528583 0.0 
0.0850262 -0.0866592 0.0 
0.000371847 0.000724909 0.0 
-0.000327257 0.000439976 0.0 
-0.000842994 0.0139022 0.0 
3.96369e-07 2.50806e-05 0.0 
0.105428 -0.067143 0.0 
-0.46804 -0.719001 0.0 
0.0275829 0.0515821 0.0 
-0.130356 -0.244352 0.0 
-0.520798 -0.662109 0.0 
0.0890469 -0.0745283 0.0 
1.08509e-21 5.77015e-22 0.0 
-0.516163 -0.64331 0.0 
0.0331398 -0.198212 0.0 
0.0337082 -0.136284 0.0 
7.09018e-21 2.95581e-21 0.0 
1.52794e-21 3.89063e-22 0.0 
0.109545 -0.0895412 0.0 
-0.00355443 0.100682 0.0 
1.63042e-21 1.81135e-22 0.0 
-4.77908e-05 2.88866e-05 0.0 
0.0832069 -0.0895543 0.0 
-5.0753e-05 6.11954e-05 0.0 
0.0779775 -0.1262 0.0 
-0.174567 -0.291634 0.0 
0.177623 -0.30327 0.0 
0.00302683 0.0159834 0.0 
-0.561377 -0.649396 0.0 
0.0146931 0.0187188 0.0 
-0.00441038 0.00250361 0.0 
-0.161063 -0.198892 0.0 
5.21433e-05 0.000334209 0.0 
-0.000578055 0.000327887 0.0 
0.0586392 -0.0934537 0.0 
0.0552642 -0.11687 0.0 
-0.00309071 0.00608484 0.0 
-0.000135011 0.000356645 0.0 
0.783039 -0.36781 0.0 
-0.00659248 0.104315 0.0 
0.00300049 -0.128998 0.0 
-0.0550314 -0.189033 0.0 
2.15792e-21 2.72216e-22 0.0 
-6.04563e-06 7.28952e-06 0.0 
-0.0139733 -0.171859 0.0 
-0.0245638 -0.138127 0.0 
-0.0762719 -0.189622 0.0 
-0.000251709 0.000181059 0.0 
-0.00519349 -0.184023 0.0 
-0.333704 -0.50641 0.0 
0.032604 0.0158491 0.0 
-0.00431086 -0.130782 0.0 
-0.0756097 -0.301562 0.0 
0.000557919 0.00122358 0.0 
0.0914533 -0.200378 0.0 
4.77096e-21 -3.19006e-21 0.0 
-0.13228 -0.276599 0.0 
-0.00149717 0.00496493 0.0 
-0.000920558 -0.122447 0.0 
-0.000279249 0.00257153 0.0 
-0.12803 -0.295753 0.0 
-0.000146302 0.00208426 0.0 
0.000102938 0.000585754 0.0 
0.119079 -0.0611543 0.0 
0.132847 -0.132172 0.0 
0.203816 -0.0293716 0.0 
0.0202828 0.0378789 0.0 
-0.469201 -0.761571 0.0 
5.66001e-21 -3.03492e-21 0.0 
-3.66651e-06 2.57294e-06 0.0 
2.82492e-21 9.6605e-22 0.0 
-0.575385 -0.383328 0.0 
-0.613938 -0.429076 0.0 
-0.481908 -0.492342 0.0 
3.81541e-05 0.000414685 0.0 
5.13155e-21 -2.20927e-21 0.0 
-0.00510619 0.0109172 0.0 
-0.0258017 0.125708 0.0 
0.000484978 0.00115542 0.0 
-0.412608 -0.512885 0.0 
-0.506645 -0.566208 0.0 
-0.422287 -0.669372 0.0 
-0.0212807 0.123923 0.0 
-0.0446709 -0.528654 0.0 
0.288237 -0.270175 0.0 
-0.000874536 -0.234825 0.0 
-0.223314 0.189353 0.0 
-0.046817 -0.690675 0.0 
3.00917e-22 -9.36323e-23 0.0 
-0.112893 -0.512736 0.0 
-0.00054674 0.00242082 0.0 
5.70685e-21 2.16105e-21 0.0 
-0.00063057 0.00385448 0.0 
-0.173818 0.258625 0.0 
-0.0993971 -0.192025 0.0 
-0.0837234 -0.599875 0.0 
-0.0742586 -0.2786 0.0 
-0.0869069 -0.310343 0.0 
-0.0654905 -0.175304 0.0 
-1.02759e-21 3.76332e-22 0.0 
-0.00213019 -0.141925 0.0 
0.000107421 0.00112434 0.0 
-0.351525 -0.730477 0.0 
0.00801412 0.0101421 0.0 
-0.000924374 0.00160315 0.0 
-0.221861 0.246557 0.0 
-0.00212405 0.00324995 0.0 
0.00315501 0.00261656 0.0 
-6.40771e-05 3.28396e-05 0.0 
-0.124823 -0.200794 0.0 
1.81667e-21 -1.62969e-21 0.0 
-0.000720116 0.00155 0.0 
0.150266 -0.0470642 0.0 
0.000267965 0.00114812 0.0 
-0.0673594 -0.319412 0.0 
-0.14521 0.328359 0.0 
0.0662114 1.02296 0.0 
-0.268574 0.111689 0.0 
-0.109793 -0.213454 0.0 
-0.12996 -0.663404 0.0 
0.0831063 -0.104418 0.0 
-0.00267209 0.00711039 0.0 
-0.0013403 0.00265217 0.0 
0.000393064 -0.00065341 0.0 
1.65114e-22 -2.90982e-22 0.0 
-0.000565059 0.00263134 0.0 
0.152352 -0.105552 0.0 
0.0125929 0.0739562 0.0 
0.0112626 0.0681593 0.0 
0.000817441 0.00105806 0.0 
-0.168668 -0.251372 0.0 
-0.274095 -0.488568 0.0 
0.0185163 0.0508199 0.0 
-0.170108 -0.261568 0.0 
5.33716e-21 -2.75038e-21 0.0 
-0.12338 0.791312 0.0 
1.19801e-22 5.13894e-22 0.0 
-0.0158024 0.00549341 0.0 
-0.249638 0.408637 0.0 
0.0315914 -0.117016 0.0 
-0.356125 0.126329 0.0 
-0.407848 0.122752 0.0 
-9.6299e-06 1.16113e-05 0.0 
-0.115167 0.495465 0.0 
-0.110249 -0.237544 0.0 
-0.249972 -0.582448 0.0 
-0.00359671 0.0122614 0.0 
0.0265001 -0.127477 0.0 
0.000444819 0.000743607 0.0 
-1.17451e-21 -4.51738e-22 0.0 
-9.49373e-23 2.22292e-22 0.0 
-0.0151841 0.00707899 0.0 
-4.59784e-05 0.00149759 0.0 
2.41946e-21 -1.42989e-21 0.0 
-0.306217 0.325522 0.0 
-0.227996 -0.426355 0.0 
0.000197699 0.000757622 0.0 
0.000259016 0.000767599 0.0 
-0.367593 -0.094142 0.0 
-0.0204779 0.00928424 0.0 
-0.202918 0.732858 0.0 
0.0856448 -0.079374 0.0 
-0.213901 -0.309118 0.0 
-0.239213 0.636953 0.0 
-0.126051 0.383242 0.0 
0.178828 1.15221 0.0 
-7.27407e-22 -5.33046e-22 0.0 
-0.000213556 0.00434724 0.0 
-0.351343 -0.226583 0.0 
-0.29295 0.594386 0.0 
-0.298532 0.454961 0.0 
0.000231622 0.00145567 0.0 
0.000151216 0.000474936 0.0 
4.77515e-05 0.000844874 0.0 
-1.18017e-09 3.84399e-08 0.0 
0.000284659 0.000606654 0.0 
-4.12211e-05 0.00136295 0.0 
-0.0039358 0.00131746 0.0 
-0.259569 -0.306518 0.0 
-0.467022 -0.26499 0.0 
-0.312079 -0.263569 0.0 
-0.255678 0.61199 0.0 
-0.255873 0.293239 0.0 
-0.433731 -0.278118 0.0 
-0.01315 0.00780343 0.0 
-8.91591e-08 3.91891e-08 0.0 
-0.0584549 0.905402 0.0 
-0.238953 0.268641 0.0 
5.80724e-06 6.30176e-05 0.0 
-5.01568e-05 0.00012104 0.0 
-0.429382 -0.40904 0.0 
0.0133421 0.00723681 0.0 
-0.000270256 0.000257566 0.0 
1.66226e-05 0.000718091 0.0 
-0.0531319 -0.323599 0.0 
-0.016206 0.878793 0.0 
-1.27901e-21 4.70328e-23 0.0 
0.00322036 0.0867444 0.0 
0.000145115 0.00114627 0.0 
0.00280866 0.00134018 0.0 
0.00553534 0.0124482 0.0 
0.00250119 0.00650277 0.0 
-1.52995e-21 -7.1588e-22 0.0 
6.34481e-21 -3.65408e-21 0.0 
0.0196381 0.0665157 0.0 
0.00506668 0.00184007 0.0 
-0.318185 0.0670597 0.0 
0.0265995 0.0221985 0.0 
-0.173153 -0.575487 0.0 
6.09963e-21 -2.83238e-21 0.0 
0.000567688 0.0010852 0.0 
0.0312991 0.0355593 0.0 
0.000149216 0.00183612 0.0 
-0.0108316 0.00930156 0.0 
-0.00244698 0.00147237 0.0 
2.98806e-05 7.18187e-05 0.0 
0.0572717 -0.102597 0.0 
0.0434093 -0.0976647 0.0 
-0.0913502 0.897673 0.0 
0.000358291 0.00188041 0.0 
0.0635615 1.04047 0.0 
-7.1936e-05 8.67368e-05 0.0 
0.00057132 0.00164142 0.0 
4.87665e-05 0.000324025 0.0 
0.000434428 0.000641945 0.0 
0.00848431 0.00251466 0.0 
-0.367774 0.0187929 0.0 
4.19129e-05 0.000231236 0.0 
-0.337029 0.0900363 0.0 
5.97173e-21 -3.03603e-21 0.0 
3.08932e-21 -2.55159e-21 0.0 
0.00367998 0.00521352 0.0 
0.0314783 0.0258916 0.0 
-4.50457e-07 5.43138e-07 0.0 
-0.348538 -0.115114 0.0 
-0.0376529 0.788577 0.0 
-0.00440747 0.00228645 0.0 
-0.179496 0.34512 0.0 
3.51515e-21 -2.12557e-21 0.0 
-1.34224e-21 -1.69912e-22 0.0 
-0.276064 -0.231945 0.0 
0.0637521 -0.0938972 0.0 
0.000495333 0.00085067 0.0 
0.00371261 0.00921487 0.0 
0.0194505 -0.110383 0.0 
-0.00357575 0.0041031 0.0 
0.00936777 0.00681581 0.0 
-0.225293 -0.154117 0.0 
-0.314207 -0.19579 0.0 
2.12232e-21 1.02016e-21 0.0 
1.08065e-23 -9.62416e-23 0.0 
-0.327692 -0.133945 0.0 
7.71516e-22 8.45007e-23 0.0 
-0.204158 -0.332599 0.0 
2.7777e-21 -2.5428e-21 0.0 
-4.74394e-05 6.15451e-05 0.0 
-0.282077 0.144576 0.0 
0.0217438 0.0639648 0.0 
0.000520978 0.00128573 0.0 
0.0108469 0.0124701 0.0 
0.00672706 0.00555119 0.0 
-0.331091 -0.375009 0.0 
0.000495104 0.0010238 0.0 
0.00477247 0.0038193 0.0 
-0.00041914 0.000236981 0.0 
-1.22917e-21 -1.24486e-21 0.0 
-0.00221142 0.00437812 0.0 
0.0197888 0.0073552 0.0 
-0.0782111 0.5799 0.0 
0.000541052 0.00112049 0.0 
-2.06949e-09 1.58166e-07 0.0 
1.42683e-22 4.75429e-23 0.0 
-0.190933 -0.492619 0.0 
-0.339972 -0.0224017 0.0 
-0.459687 -0.362654 0.0 
0.000961229 0.00177836 0.0 
0.000425898 0.000326047 0.0 
-0.000172522 0.000577843 0.0 
-0.00034133 0.000122901 0.0 
-0.00404525 0.0014526 0.0 
-0.322599 -0.0550137 0.0 
-5.06017e-05 2.77819e-05 0.0 
0.000534624 0.000594772 0.0 
-4.10207e-05 0.000458551 0.0 
-0.404635 -0.184868 0.0 
-0.228636 -0.25502 0.0 
-0.30289 0.00536504 0.0 
0.000600627 0.00105137 0.0 
4.29045e-06 7.60669e-05 0.0 
-0.00216168 0.00118683 0.0 
3.75443e-21 1.47847e-21 0.0 
-2.74042e-05 3.30426e-05 0.0 
0.00187307 0.00216257 0.0 
-0.00105247 0.00348617 0.0 
0.0555904 -0.118131 0.0 
0.0014596 0.00455896 0.0 
-0.291278 -0.0741132 0.0 
-0.432857 -0.550609 0.0 
-0.00680483 0.00598015 0.0 
-0.280212 -0.171163 0.0 
0.000446411 0.000925307 0.0 
-2.56694e-22 3.52925e-22 0.0 
-5.80929e-06 8.84944e-05 0.0 
-0.16805 -0.415938 0.0 
-0.356647 -0.30852 0.0 
3.8454e-05 0.00084246 0.0 
0.000817269 0.000338499 0.0 
-0.373182 -0.615999 0.0 
0.0451704 -0.0979494 0.0 
0.000419997 0.00278297 0.0 
1.0255e-05 6.61528e-05 0.0 
1.78666e-21 -1.73858e-21 0.0 
-6.7087e-22 -2.9294e-22 0.0 
0.00174966 0.000460748 0.0 
1.00729e-21 2.6214e-22 0.0 
6.38956e-21 -2.39625e-21 0.0 
-0.395785 -0.284992 0.0 
-0.00496927 0.0033019 0.0 
-1.28314e-21 2.94847e-22 0.0 
-0.0100179 0.00540637 0.0 
-0.103584 0.437829 0.0 
-0.313432 0.0350293 0.0 
0.00143036 0.00113398 0.0 
-0.434965 -0.178365 0.0 
0.00035101 0.00155178 0.0 
1.66445e-21 6.11206e-22 0.0 
8.98022e-06 0.000311497 0.0 
-0.404421 0.0395364 0.0 
0.0713516 -0.120088 0.0 
-0.0524092 -0.252882 0.0 
0.0330091 0.037344 0.0 
0.017874 -0.0330125 0.0 
8.85905e-05 -0.000188812 0.0 
0.000474609 0.00143758 0.0 
0.135908 -0.195206 0.0 
0.000542389 0.00120092 0.0 
0.0354992 -0.0767082 0.0 
1.55544e-21 8.86688e-22 0.0 
0.0012654 0.00267079 0.0 
2.45709e-21 1.0151e-21 0.0 
0.000106372 0.000792607 0.0 
-0.0433061 -0.148118 0.0 
0.0247628 0.0138288 0.0 
0.0924196 -0.152813 0.0 
0.0059082 -0.0127674 0.0 
0.00540569 -0.0113103 0.0 
-5.89892e-38 1.18717e-37 0.0 
1.28779e-07 -2.73023e-07 0.0 
-0.00574507 0.00307751 0.0 
-0.00826241 0.0034916 0.0 
0.0168723 0.0130301 0.0 
0.000486548 0.00381907 0.0 
3.18762e-21 1.14819e-21 0.0 
-0.000501369 0.00098888 0.0 
-9.77875e-38 3.16589e-37 0.0 
-9.38359e-36 4.14611e-35 0.0 
0.034693 0.0256586 0.0 
0.000226751 0.00231467 0.0 
0.245627 -0.0211425 0.0 
0.338295 -0.371228 0.0 
0.0630797 -0.0874373 0.0 
0.00010235 0.000367192 0.0 
0.000280078 0.000962108 0.0 
-0.290352 0.183409 0.0 
0.0234007 -0.109147 0.0 
-0.0351904 -0.14068 0.0 
0.0207707 0.0192518 0.0 
-2.82125e-06 8.19943e-05 0.0 
0.0498743 -0.33845 0.0 
0.0318676 -0.235699 0.0 
-0.14222 0.270832 0.0 
-0.00180175 0.00118929 0.0 
0.0868454 -0.14022 0.0 
0.000149731 -0.000310967 0.0 
0.000406261 -0.000417899 0.0 
-9.3095e-22 -1.35852e-21 0.0 
-0.175862 -0.252545 0.0 
2.53572e-21 7.39583e-22 0.0 
0.00552372 0.00798094 0.0 
0.000552201 0.00219861 0.0 
-0.134343 -0.22593 0.0 
0.000390751 -0.000414096 0.0 
-0.109944 -0.266767 0.0 
0.000160203 -0.00020695 0.0 
0.000329498 -0.000367283 0.0 
0.000435044 0.0010849 0.0 
6.22134e-22 2.08211e-22 0.0 
0.114772 -0.0745547 0.0 
-2.26451e-06 1.28548e-06 0.0 
0.000314915 -0.000424551 0.0 
-9.01467e-05 -6.00687e-05 0.0 
0.000102818 -0.000152729 0.0 
-9.46155e-22 2.57843e-22 0.0 
-0.000239176 -4.51016e-05 0.0 
-0.000257054 -0.000246331 0.0 
0.413147 0.0381306 0.0 
-1.6618e-22 -9.04681e-23 0.0 
0.0420119 -0.131483 0.0 
-0.000254223 -1.67715e-05 0.0 
-0.00041654 -0.000337663 0.0 
0.000792504 -0.00075892 0.0 
-5.47536e-22 1.51972e-22 0.0 
7.01635e-05 -0.000121721 0.0 
0.175306 -0.311867 0.0 
-0.0111683 0.00691033 0.0 
0.093779 -0.0916032 0.0 
-0.323842 -0.556711 0.0 
-1.54782e-21 -8.80617e-22 0.0 
0.00124439 -0.00139288 0.0 
-0.000349567 0.000189738 0.0 
3.6978e-21 -3.0044e-21 0.0 
-0.00682405 0.00460181 0.0 
5.1629e-21 -2.81562e-21 0.0 
0.11598 -0.197453 0.0 
-0.000620032 -0.000243737 0.0 
0.171941 -0.0517179 0.0 
-0.191723 -0.130415 0.0 
-0.00853467 0.0051614 0.0 
-0.176014 0.437904 0.0 
-9.79247e-22 -5.115e-22 0.0 
-0.00910073 0.00319101 0.0 
0.147402 -0.26138 0.0 
-6.90831e-05 -6.73547e-05 0.0 
-0.396803 -0.106834 0.0 
-0.0132196 0.00902534 0.0 
-0.0206187 0.0113492 0.0 
-0.000319083 5.33465e-07 0.0 
4.38511e-21 -8.13163e-22 0.0 
1.71737e-21 -2.03883e-21 0.0 
-0.00461015 0.00327562 0.0 
-0.022101 0.00827057 0.0 
-1.44799e-05 -7.90798e-05 0.0 
-0.333165 -0.459738 0.0 
-0.0137021 0.00646752 0.0 
-0.000199964 -6.34665e-05 0.0 
-0.0001395 5.21464e-05 0.0 
-0.0175514 0.00900968 0.0 
-0.0581929 0.955516 0.0 
-0.13086 -0.31764 0.0 
-1.13714e-21 -8.16119e-22 0.0 
-2.95308e-05 6.18398e-05 0.0 
-0.000394759 0.000156755 0.0 
-2.18677e-05 1.2006e-05 0.0 
-1.30172e-21 1.63703e-22 0.0 
-0.0387478 -0.175752 0.0 
-0.161262 0.217256 0.0 
-5.02001e-06 9.15351e-05 0.0 
-0.00053674 0.00224911 0.0 
-0.000291723 -6.73229e-05 0.0 
0.108279 -0.131696 0.0 
-0.000266463 -0.000186699 0.0 
1.03005e-22 -1.51371e-21 0.0 
-0.000463585 -0.00045924 0.0 
0.0669283 -0.132413 0.0 
-0.000138465 -5.989e-05 0.0 
-0.00992684 0.00520091 0.0 
0.474819 -0.384683 0.0 
-1.80858e-05 3.38744e-05 0.0 
-4.11404e-05 -5.63697e-05 0.0 
-0.129343 0.646422 0.0 
-0.00980101 -0.0691977 0.0 
-0.0198495 0.00909525 0.0 
0.000667531 -0.000713575 0.0 
-0.212743 0.615239 0.0 
4.81071e-22 4.36002e-22 0.0 
-0.218362 -0.0975333 0.0 
-0.000374643 -0.000193174 0.0 
-0.00117367 0.000688007 0.0 
-0.376579 -0.391315 0.0 
0.000554271 -0.000538329 0.0 
-0.000128396 7.0328e-05 0.0 
5.15425e-21 -2.9251e-21 0.0 
-0.0245104 0.0105105 0.0 
2.21454e-05 -0.00010659 0.0 
-0.0148614 0.00813599 0.0 
-0.00202032 0.000982496 0.0 
0.00093903 -0.000986001 0.0 
-0.00797282 0.00432283 0.0 
0.134877 -0.0601451 0.0 
-0.282661 -0.380268 0.0 
0.00125313 -0.00132235 0.0 
-0.0318826 0.0119558 0.0 
3.74207e-21 -3.22893e-21 0.0 
-0.0134439 0.0121896 0.0 
-4.39159e-22 -9.73052e-23 0.0 
-0.0176985 0.00612515 0.0 
-1.1536e-21 -1.04009e-21 0.0 
-1.15844e-06 3.75061e-05 0.0 
-0.0140819 0.00520943 0.0 
-0.00990672 0.0109719 0.0 
-0.153797 0.755642 0.0 
-0.00507315 0.00649325 0.0 
-0.196273 0.530074 0.0 
5.74465e-21 -2.06154e-21 0.0 
-0.000278747 -0.000262848 0.0 
-2.06173e-67 2.68256e-67 0.0 
-0.133522 0.663619 0.0 
-0.0657552 -0.28523 0.0 
-0.00800086 0.00803398 0.0 
-0.0098564 0.991599 0.0 
-0.00951135 0.00658884 0.0 
-1.73844e-06 -7.55935e-07 0.0 
-0.00582046 0.00881398 0.0 
0.0194247 0.0271923 0.0 
-0.083814 -0.200347 0.0 
0.0248228 -0.164717 0.0 
-0.337347 0.204603 0.0 
-0.000186785 8.20998e-05 0.0 
0.000120478 0.0098309 0.0 
-9.5445e-22 5.09625e-24 0.0 
-1.03416e-21 -3.13957e-22 0.0 
-0.202007 -0.672636 0.0 
0.11861 -0.211075 0.0 
-0.00118659 0.00642088 0.0 
-0.00369736 0.00223254 0.0 
7.37113e-22 -5.719e-22 0.0 
-0.00638003 0.00367309 0.0 
0.00990432 -0.00475708 0.0 
-0.219081 0.0684568 0.0 
0.107664 -0.073455 0.0 
5.14916e-05 -0.000183479 0.0 
0.0084062 -0.000923874 0.0 
6.5138e-22 -1.66916e-21 0.0 
-0.000318942 0.000152773 0.0 
0.262917 -0.109295 0.0 
-0.00134748 0.00329814 0.0 
-0.000234773 -0.000355099 0.0 
0.00888904 -0.00212807 0.0 
-0.000563053 -0.000354953 0.0 
0.00361066 0.00743753 0.0 
-0.00840291 0.0123372 0.0 
-6.68742e-05 -0.000205992 0.0 
-0.0329715 -0.154729 0.0 
0.00913169 -0.0035044 0.0 
-3.29583e-05 1.30875e-05 0.0 
-0.159112 -0.226881 0.0 
0.0712565 -0.100938 0.0 
-0.00319631 0.00123822 0.0 
3.47745e-22 -3.30027e-22 0.0 
-0.000121408 -0.000125893 0.0 
-0.000150694 -0.000189349 0.0 
-5.14752e-22 -3.43815e-22 0.0 
0.00339905 0.00301745 0.0 
6.06421e-21 -3.35946e-21 0.0 
9.76923e-05 -0.000229293 0.0 
0.00967726 -0.00150054 0.0 
-2.1476e-05 0.000647465 0.0 
-1.74006e-06 5.66767e-05 0.0 
-3.7007e-07 9.88895e-06 0.0 
9.10065e-05 -0.000168414 0.0 
0.00859341 -0.00159247 0.0 
-7.57781e-45 -3.06722e-45 0.0 
0.0689759 -0.0857635 0.0 
0.0857013 -0.143074 0.0 
-0.15783 -0.279802 0.0 
0.088867 -0.153581 0.0 
-4.42718e-05 -0.000108628 0.0 
6.7787e-22 -1.19478e-21 0.0 
9.12116e-22 -2.03299e-21 0.0 
1.45859e-05 -0.00013822 0.0 
-1.94098e-22 -2.57129e-22 0.0 
-4.16517e-05 -0.000149959 0.0 
-0.0118155 0.00504135 0.0 
-0.000104671 -0.000165982 0.0 
0.00648883 -0.324104 0.0 
-0.0467958 -0.151544 0.0 
0.0090345 -0.00222612 0.0 
1.07421e-05 -0.000201538 0.0 
-0.000953378 0.000807887 0.0 
3.47549e-21 4.23532e-20 0.0 
2.28773e-21 -1.38864e-21 0.0 
0.68114 -0.387779 0.0 
0.00426846 0.00694096 0.0 
-0.00186833 0.00305026 0.0 
0.242727 -0.0634675 0.0 
-0.000946091 0.002329 0.0 
0.00845388 -0.00108447 0.0 
2.24041e-21 -2.49907e-21 0.0 
1.67148e-21 -2.41997e-21 0.0 
0.00868239 -0.00048617 0.0 
8.61547e-22 -3.63252e-22 0.0 
-5.07708e-05 4.01457e-05 0.0 
-0.0175244 0.0107978 0.0 
-4.54243e-06 2.23873e-05 0.0 
0.145658 -0.155134 0.0 
-8.13334e-36 1.26979e-35 0.0 
-3.25611e-22 -8.40593e-22 0.0 
-1.34026e-05 6.72237e-06 0.0 
-0.0264075 0.00808789 0.0 
-5.91857e-20 1.18907e-19 0.0 
4.09464e-21 -1.36139e-21 0.0 
0.128098 -0.128736 0.0 
0.101453 -0.135453 0.0 
2.92557e-05 -4.24337e-05 0.0 
-6.53052e-20 1.09371e-19 0.0 
-4.5581e-43 6.70819e-43 0.0 
-3.39243e-20 1.09909e-19 0.0 
-5.92268e-22 -4.6016e-22 0.0 
2.33608e-21 -6.89796e-22 0.0 
0.0490537 -0.109941 0.0 
6.85017e-23 -4.04277e-23 0.0 
-0.000236944 0.000284735 0.0 
-4.59529e-20 9.92144e-20 0.0 
-0.0214352 0.00773045 0.0 
-0.000523784 0.00143687 0.0 
-0.000427411 0.00142952 0.0 
4.52836e-21 -2.57452e-21 0.0 
-0.188105 -0.310686 0.0 
-4.33139e-20 1.22872e-19 0.0 
-0.00150918 0.00278747 0.0 
-9.1705e-05 0.0017406 0.0 
-7.25279e-20 1.14315e-19 0.0 
-0.00174887 0.000668631 0.0 
0.42937 -0.0902734 0.0 
-1.88509e-35 3.12521e-35 0.0 
-8.04931e-22 -1.09608e-21 0.0 
-0.0143838 0.00730457 0.0 
-0.0010317 0.000568138 0.0 
-0.00724598 0.00377834 0.0 
-0.00365002 -0.12326 0.0 
-7.8047e-22 1.65331e-21 0.0 
-0.00134974 0.00323563 0.0 
-1.05644e-21 -7.1684e-22 0.0 
0.360368 -0.0243973 0.0 
-7.09805e-22 1.50361e-21 0.0 
-1.77904e-35 3.15005e-35 0.0 
-0.0103462 0.00480898 0.0 
-0.0147927 -0.132144 0.0 
4.2231e-22 5.09529e-23 0.0 
-1.65124e-37 2.29459e-37 0.0 
-0.000360916 0.00121894 0.0 
-3.88565e-39 5.42191e-39 0.0 