<VTKFile type="UnstructuredGrid" version="0.1" byte_order="LittleEndian">
  <UnstructuredGrid>
    <Piece NumberOfPoints="19098" NumberOfCells="38106">
      <Points>
        <DataArray type = "Float64" NumberOfComponents="3" format="ascii">
4.47113 4.31735 0.0 
4.37155 4.51406 0.0 
4.03883 3.96941 0.0 
4.05712 3.82329 0.0 
3.41048 4.64331 0.0 
4.00071 3.99383 0.0 
3.97295 3.97751 0.0 
4.0436 3.96391 0.0 
4.20802 3.63047 0.0 
4.46122 4.86315 0.0 
3.97506 3.9702 0.0 
4.47168 4.85562 0.0 
3.30452 4.54758 0.0 
3.32789 4.61606 0.0 
3.4766 4.67983 0.0 
3.5071 4.59528 0.0 
4.06661 3.96943 0.0 
4.00146 3.94239 0.0 
4.00013 3.99494 0.0 
4.21153 3.63637 0.0 
4.19178 3.52513 0.0 
4.0952 3.91741 0.0 
4.04242 3.96838 0.0 
3.97239 3.97184 0.0 
4.01265 3.97844 0.0 
3.97337 3.97101 0.0 
3.98784 3.99794 0.0 
4.22348 3.57166 0.0 
3.59694 4.6548 0.0 
3.97393 3.97934 0.0 
3.96523 4.00078 0.0 
3.9886 3.98684 0.0 
4.26166 3.44835 0.0 
4.06415 3.88508 0.0 
3.32362 4.60564 0.0 
4.24551 3.45929 0.0 
4.01817 3.97838 0.0 
3.35489 4.56507 0.0 
4.03184 3.97303 0.0 
4.06479 3.87391 0.0 
3.41363 4.63829 0.0 
3.43837 4.58064 0.0 
3.54569 4.57266 0.0 
3.44298 4.65773 0.0 
3.98742 3.98674 0.0 
3.28551 4.54503 0.0 
3.98985 3.99949 0.0 
3.3721 4.62889 0.0 
3.32791 4.56385 0.0 
3.42796 4.6008 0.0 
3.33943 4.61228 0.0 
3.96509 4.00406 0.0 
3.46789 4.57881 0.0 
3.37419 4.58382 0.0 
3.40794 4.57812 0.0 
3.51159 4.57152 0.0 
3.48196 4.56999 0.0 
3.99585 3.98973 0.0 
3.99778 3.99115 0.0 
3.9971 3.98994 0.0 
4.48267 4.33236 0.0 
3.27788 4.53615 0.0 
3.40124 4.59347 0.0 
3.29182 4.54097 0.0 
3.26875 4.53081 0.0 
3.99815 3.9818 0.0 
3.34707 4.61338 0.0 
3.3362 4.56229 0.0 
3.60084 4.54322 0.0 
3.99703 3.98503 0.0 
3.44424 4.66739 0.0 
3.9995 3.99049 0.0 
4.16723 3.56984 0.0 
3.42329 4.58871 0.0 
3.34869 4.57322 0.0 
3.71382 4.51725 0.0 
4.00696 3.97816 0.0 
3.2726 4.52973 0.0 
4.00441 3.98394 0.0 
3.65472 4.48343 0.0 
3.99093 3.999 0.0 
3.29195 4.54465 0.0 
4.05968 3.96544 0.0 
3.63429 4.5056 0.0 
3.40282 4.64556 0.0 
4.21577 3.49749 0.0 
3.33182 4.5987 0.0 
4.23848 3.47818 0.0 
3.26491 4.53185 0.0 
3.31544 4.57168 0.0 
4.23049 3.45796 0.0 
3.66167 4.47156 0.0 
3.37975 4.59496 0.0 
3.25478 4.52613 0.0 
3.27685 4.5392 0.0 
3.37347 4.61486 0.0 
3.40797 4.62907 0.0 
3.96943 4.0037 0.0 
3.48292 4.65159 0.0 
4.42566 4.85114 0.0 
3.39978 4.63701 0.0 
3.5999 4.62529 0.0 
3.2993 4.5517 0.0 
3.99671 3.99697 0.0 
3.29344 4.59353 0.0 
3.99393 3.99821 0.0 
3.31032 4.55308 0.0 
3.36344 4.60761 0.0 
3.67778 4.45514 0.0 
3.69995 4.45422 0.0 
3.34729 4.64347 0.0 
3.99122 3.99813 0.0 
3.24988 4.51853 0.0 
3.58847 4.53962 0.0 
4.27299 4.70159 0.0 
3.39461 4.6242 0.0 
4.48282 4.8369 0.0 
3.34131 4.60556 0.0 
3.99315 3.99798 0.0 
4.3771 4.34132 0.0 
3.99099 3.99719 0.0 
3.4869 4.65731 0.0 
3.24775 4.52307 0.0 
3.36449 4.57312 0.0 
3.3225 4.59785 0.0 
3.68278 4.52082 0.0 
3.43008 4.6149 0.0 
3.36775 4.61832 0.0 
4.04342 3.94492 0.0 
4.00021 3.99248 0.0 
3.39364 4.65447 0.0 
3.31751 4.6007 0.0 
3.98998 3.9984 0.0 
3.39291 4.62775 0.0 
3.30461 4.57995 0.0 
4.46134 4.3009 0.0 
4.3468 4.28437 0.0 
3.36137 4.6421 0.0 
3.2466 4.5321 0.0 
4.54774 4.58302 0.0 
3.4608 4.59214 0.0 
3.34523 4.61723 0.0 
3.99546 3.99703 0.0 
3.26874 4.54461 0.0 
3.2647 4.55499 0.0 
4.02754 3.96232 0.0 
3.38371 4.66738 0.0 
4.06664 3.9174 0.0 
3.39172 4.63147 0.0 
3.29422 4.586 0.0 
3.26691 4.55298 0.0 
3.29544 4.58095 0.0 
3.34034 4.61904 0.0 
3.4626 4.67042 0.0 
3.23494 4.54139 0.0 
3.32405 4.58979 0.0 
3.39363 4.6409 0.0 
3.9708 4.00413 0.0 
4.03949 3.96608 0.0 
3.97026 3.97447 0.0 
3.43822 4.64853 0.0 
3.5376 4.6682 0.0 
4.19038 3.58888 0.0 
3.61328 4.64029 0.0 
3.30348 4.62876 0.0 
4.0185 3.9793 0.0 
3.37172 4.63921 0.0 
3.38244 4.62284 0.0 
3.69029 4.44156 0.0 
4.04646 3.97088 0.0 
4.4745 4.33733 0.0 
3.91823 4.33732 0.0 
3.50353 4.6463 0.0 
3.98904 3.99009 0.0 
3.98845 3.98585 0.0 
4.00094 3.97452 0.0 
3.6118 4.6483 0.0 
4.3338 4.41383 0.0 
3.34566 4.59242 0.0 
3.31406 4.57634 0.0 
3.28084 4.56441 0.0 
3.51821 4.65485 0.0 
3.25908 4.54132 0.0 
3.25374 4.54314 0.0 
3.4528 4.62147 0.0 
3.4537 4.67552 0.0 
3.24798 4.52915 0.0 
3.96939 4.00218 0.0 
3.3787 4.62605 0.0 
3.2355 4.52072 0.0 
3.30022 4.56651 0.0 
3.40257 4.62208 0.0 
4.47722 4.84605 0.0 
3.57737 4.62203 0.0 
3.34362 4.63207 0.0 
3.53051 4.65629 0.0 
3.30802 4.58999 0.0 
3.96282 4.00097 0.0 
3.28414 4.5605 0.0 
3.33051 4.58211 0.0 
3.99206 3.99856 0.0 
3.97056 4.00305 0.0 
3.49865 4.68815 0.0 
3.38333 4.61214 0.0 
3.34265 4.59919 0.0 
4.00007 3.94963 0.0 
4.46132 4.76914 0.0 
3.22583 4.52393 0.0 
3.36089 4.60222 0.0 
3.32008 4.59162 0.0 
3.28546 4.55523 0.0 
3.40362 4.63302 0.0 
3.97157 3.97597 0.0 
3.42355 4.65638 0.0 
3.99073 3.98782 0.0 
3.5699 4.53801 0.0 
3.99189 3.99006 0.0 
4.00884 3.97836 0.0 
3.26975 4.54975 0.0 
3.31118 4.55905 0.0 
4.01247 3.97313 0.0 
3.38713 4.61923 0.0 
4.27278 4.53684 0.0 
4.36942 4.63918 0.0 
3.30144 4.57312 0.0 
3.99711 3.98901 0.0 
4.53636 4.63819 0.0 
3.5498 4.64769 0.0 
3.515 4.64931 0.0 
3.98139 3.98161 0.0 
3.98426 3.99607 0.0 
3.53156 4.65046 0.0 
4.23291 3.46857 0.0 
4.20162 3.69609 0.0 
3.47907 4.62145 0.0 
4.05222 3.96258 0.0 
3.35757 4.63321 0.0 
4.46436 4.74427 0.0 
3.75683 4.4352 0.0 
3.42924 4.65216 0.0 
3.6126 4.62568 0.0 
3.97768 3.97949 0.0 
3.32887 4.5884 0.0 
3.38065 4.64767 0.0 
3.46955 4.65623 0.0 
4.0166 3.97642 0.0 
3.33227 4.57681 0.0 
3.4029 4.65169 0.0 
4.0435 3.96084 0.0 
3.35802 4.66005 0.0 
3.96005 4.00156 0.0 
3.49418 4.66253 0.0 
3.51396 4.6296 0.0 
3.46879 4.66511 0.0 
3.4796 4.66048 0.0 
3.2559 4.53615 0.0 
3.49886 4.65064 0.0 
4.2063 3.64974 0.0 
3.35698 4.60965 0.0 
4.51514 4.41162 0.0 
3.98644 3.99953 0.0 
3.97324 3.97655 0.0 
3.99396 3.98996 0.0 
3.29582 4.55551 0.0 
3.33199 4.57075 0.0 
3.5601 4.65178 0.0 
3.36666 4.67995 0.0 
4.43052 4.67805 0.0 
3.53753 4.55358 0.0 
4.20198 3.68533 0.0 
3.35522 4.58394 0.0 
3.39344 4.66186 0.0 
3.48514 4.66526 0.0 
3.24277 4.52264 0.0 
3.36008 4.61818 0.0 
3.27484 4.54189 0.0 
3.37016 4.65154 0.0 
4.45519 4.54428 0.0 
3.42724 4.63849 0.0 
3.25515 4.52997 0.0 
3.97618 3.97573 0.0 
3.5367 4.64421 0.0 
4.0298 3.95665 0.0 
3.37791 4.60324 0.0 
4.4947 4.82679 0.0 
3.34583 4.58636 0.0 
3.26384 4.5378 0.0 
3.45424 4.65231 0.0 
3.98218 3.97213 0.0 
3.97974 3.98114 0.0 
3.27858 4.54722 0.0 
3.97627 3.97307 0.0 
3.97792 3.98069 0.0 
3.98777 3.98477 0.0 
4.33473 4.75369 0.0 
3.97397 3.97388 0.0 
3.98076 3.97931 0.0 
3.35349 4.6125 0.0 
3.36125 4.5941 0.0 
3.39291 4.64715 0.0 
3.38377 4.64248 0.0 
3.97555 3.97862 0.0 
3.96872 3.99989 0.0 
3.50471 4.65896 0.0 
3.97427 3.97514 0.0 
3.30078 4.56213 0.0 
4.00133 3.99041 0.0 
3.49061 4.67282 0.0 
3.4118 4.65656 0.0 
4.35443 4.37911 0.0 
3.97574 3.97792 0.0 
3.28541 4.54808 0.0 
3.78178 4.36919 0.0 
3.47836 4.67142 0.0 
3.37556 4.56512 0.0 
3.40725 4.60522 0.0 
3.41423 4.61413 0.0 
3.66309 4.54482 0.0 
3.53729 4.66069 0.0 
3.39684 4.61038 0.0 
3.23654 4.52479 0.0 
3.34458 4.62597 0.0 
3.31459 4.56599 0.0 
4.26934 3.43413 0.0 
3.97607 3.97669 0.0 
3.28019 4.56956 0.0 
3.99724 3.9817 0.0 
3.64469 4.62441 0.0 
3.97929 3.97894 0.0 
3.97997 3.97794 0.0 
3.45564 4.65734 0.0 
3.99726 3.99359 0.0 
3.47349 4.56517 0.0 
3.97762 3.97757 0.0 
3.26675 4.53598 0.0 
3.54077 4.63195 0.0 
3.98024 3.98232 0.0 
3.99935 3.99457 0.0 
4.315 4.47713 0.0 
3.45057 4.56335 0.0 
4.47817 4.84967 0.0 
3.9942 3.99081 0.0 
3.97461 3.97642 0.0 
3.41917 4.62794 0.0 
3.97671 3.98092 0.0 
4.44394 4.85106 0.0 
3.97498 3.97356 0.0 
3.45933 4.72115 0.0 
3.3084 4.5435 0.0 
3.99905 3.99544 0.0 
4.04595 3.96747 0.0 
3.97199 3.97492 0.0 
3.98887 3.98781 0.0 
4.38849 4.27725 0.0 
3.99421 3.9843 0.0 
3.97764 3.97855 0.0 
3.99543 3.99261 0.0 
3.41158 4.5623 0.0 
4.41658 4.87018 0.0 
3.83937 4.40116 0.0 
4.0285 3.97434 0.0 
4.46957 4.35921 0.0 
3.33623 4.55659 0.0 
3.43803 4.63056 0.0 
3.99711 3.99491 0.0 
3.33803 4.54905 0.0 
3.60007 4.64736 0.0 
3.31823 4.54473 0.0 
3.34764 4.55696 0.0 
3.42716 4.70785 0.0 
3.99823 3.99578 0.0 
3.98873 3.9851 0.0 
3.32075 4.54925 0.0 
3.40492 4.56611 0.0 
3.44866 4.57212 0.0 
3.36577 4.55734 0.0 
3.99714 3.99421 0.0 
3.97844 3.97739 0.0 
3.32218 4.55369 0.0 
3.54252 4.56272 0.0 
3.97919 3.98256 0.0 
4.01102 3.96024 0.0 
3.50815 4.56234 0.0 
3.98136 3.98062 0.0 
3.39486 4.56956 0.0 
4.01871 3.97569 0.0 
3.79681 4.40057 0.0 
3.41958 4.57247 0.0 
4.05857 3.97056 0.0 
3.99773 3.99251 0.0 
3.34982 4.55333 0.0 
3.99747 3.99597 0.0 
4.03201 3.95656 0.0 
4.02003 3.97717 0.0 
4.00999 3.97153 0.0 
4.00714 3.96863 0.0 
3.97576 3.97959 0.0 
3.97196 3.97396 0.0 
3.33404 4.55142 0.0 
4.00376 3.97911 0.0 
3.97787 3.97581 0.0 
3.98102 3.974 0.0 
3.98057 3.97754 0.0 
3.97908 3.97567 0.0 
3.36322 4.55973 0.0 
3.9925 3.98539 0.0 
3.56999 4.55414 0.0 
3.29548 4.61373 0.0 
4.42756 4.86951 0.0 
4.03009 3.97148 0.0 
3.27128 4.57873 0.0 
3.59106 4.53002 0.0 
4.04048 3.97372 0.0 
3.43953 4.64322 0.0 
3.9817 3.98273 0.0 
3.91503 4.32508 0.0 
3.3064 4.54554 0.0 
3.29436 4.53825 0.0 
3.42857 4.56689 0.0 
3.5482 4.61427 0.0 
4.39719 4.39312 0.0 
3.35908 4.56255 0.0 
3.7234 4.42696 0.0 
4.08079 3.89491 0.0 
3.283 4.53488 0.0 
3.38219 4.56293 0.0 
3.99843 3.99257 0.0 
3.28487 4.53234 0.0 
3.97047 4.00093 0.0 
4.41229 4.31053 0.0 
3.56669 4.54755 0.0 
4.48864 4.78818 0.0 
4.03964 3.95244 0.0 
4.50168 4.75275 0.0 
3.98296 3.97675 0.0 
3.98219 3.97963 0.0 
3.98285 3.97907 0.0 
4.39805 4.30266 0.0 
3.98146 3.97711 0.0 
3.97975 3.9749 0.0 
3.74812 4.42086 0.0 
3.97626 3.96831 0.0 
3.99444 3.99776 0.0 
3.98273 3.98106 0.0 
3.97777 3.97276 0.0 
3.75451 4.40551 0.0 
3.97845 3.97148 0.0 
4.37792 4.28227 0.0 
3.98734 3.98517 0.0 
4.24891 3.44489 0.0 
4.14377 3.80746 0.0 
3.98366 3.97875 0.0 
3.23351 4.51205 0.0 
3.9909 3.98493 0.0 
3.7754 4.4649 0.0 
3.99532 3.99639 0.0 
4.05553 3.96443 0.0 
3.99043 3.98701 0.0 
3.43165 4.62261 0.0 
3.98669 3.98403 0.0 
3.78078 4.40515 0.0 
3.98639 3.99479 0.0 
3.97952 3.98005 0.0 
4.08253 3.88518 0.0 
3.99512 3.98775 0.0 
3.98589 4.0003 0.0 
4.18956 3.77978 0.0 
3.99867 3.99391 0.0 
3.74135 4.38797 0.0 
[...]
<PointData>
  <DataArray type = "Float64" Name="Vitesse" NumberOfComponents="3" format="ascii">
0.0113019 -0.00396338 0.0 
0.0567545 0.0699629 0.0 
0.000963295 -0.00171297 0.0 
2.82027e-52 2.44457e-51 0.0 
0.361121 0.120031 0.0 
0.00295672 -0.00420543 0.0 
0.00273974 -0.00828168 0.0 
0.000765454 -0.0015548 0.0 
3.35477e-59 3.76438e-59 0.0 
-0.0120045 0.110728 0.0 
-0.00138095 -0.0123546 0.0 
-0.0140262 0.0742309 0.0 
-5.91907e-36 -3.20623e-36 0.0 
0.835236 0.400751 0.0 
1.48406 0.242153 0.0 
-1.43505e-35 -1.13787e-36 0.0 
0.00142582 -0.00169623 0.0 
-5.76575e-05 -0.000157286 0.0 
0.000797236 -0.0018638 0.0 
-0.000271493 -0.000346736 0.0 
-1.433e-24 2.41622e-24 0.0 
-6.7165e-05 -0.00136363 0.0 
0.00105692 -0.00171528 0.0 
-3.18895e-05 -0.0107202 0.0 
9.92823e-31 7.67176e-31 0.0 
-0.000658094 -0.0113094 0.0 
-2.6227e-25 1.89609e-25 0.0 
-1.41321e-51 2.74323e-51 0.0 
0.320072 -0.0364779 0.0 
6.24624e-05 -0.000228363 0.0 
0.00108703 -0.00277556 0.0 
0.00154679 -0.00447356 0.0 
-6.32771e-24 9.54128e-24 0.0 
-0.000487399 -0.000233764 0.0 
0.18575 0.0887806 0.0 
-1.15475e-23 1.73549e-23 0.0 
-3.91624e-06 -1.30058e-05 0.0 
-2.89483e-07 2.82176e-06 0.0 
0.000881027 -0.00179595 0.0 
-9.25977e-06 -4.1582e-06 0.0 
-5.25347e-21 -1.57267e-21 0.0 
-6.34171e-38 -8.45675e-39 0.0 
-1.41815e-42 -1.80455e-43 0.0 
0.802976 0.224648 0.0 
0.00145193 -0.00383072 0.0 
-6.59203e-34 -3.76054e-34 0.0 
-9.78613e-25 6.20315e-25 0.0 
0.26411 0.133408 0.0 
-1.95278e-34 -9.58212e-35 0.0 
-3.90692e-34 -8.26076e-35 0.0 
0.183342 0.0848159 0.0 
0.0129976 -0.0103555 0.0 
-9.32986e-38 -1.18504e-38 0.0 
-5.08237e-35 -2.68014e-35 0.0 
-4.75284e-38 -9.99317e-39 0.0 
-6.03794e-41 -7.68318e-42 0.0 
1.09532e-08 6.93321e-08 0.0 
-0.00586074 -0.0169087 0.0 
-0.00770654 -0.0161553 0.0 
-0.00575986 -0.0158825 0.0 
0.0102553 -0.00297021 0.0 
-0.00155962 0.0253933 0.0 
-1.93434e-34 -6.92727e-35 0.0 
-0.000306828 0.00129472 0.0 
-0.00189184 0.0450958 0.0 
-0.000217839 -0.000671046 0.0 
0.0232605 0.0107541 0.0 
-1.24429e-46 -6.19482e-47 0.0 
0.00033198 0.000598229 0.0 
-0.00194626 -0.00766275 0.0 
1.38953 0.3297 0.0 
-3.34475e-05 -6.76323e-05 0.0 
-1.11218e-35 2.03365e-35 0.0 
-5.49496e-37 -1.05607e-37 0.0 
-1.75786e-34 -8.80103e-35 0.0 
-3.75752e-35 1.84026e-35 0.0 
3.81692e-52 4.4323e-52 0.0 
-0.00507345 0.0412418 0.0 
6.47108e-39 1.37548e-38 0.0 
0.0387636 0.0669386 0.0 
-8.19329e-28 1.56531e-27 0.0 
-2.88448e-35 -1.69882e-35 0.0 
0.00121261 -0.00171617 0.0 
0.0229324 0.0426903 0.0 
0.697727 0.239923 0.0 
-1.43105e-24 2.45921e-24 0.0 
-2.04393e-21 -1.00497e-21 0.0 
-9.35205e-35 1.58125e-34 0.0 
-0.00133264 0.0429542 0.0 
-5.7324e-33 -2.86321e-33 0.0 
-3.89322e-23 5.92045e-23 0.0 
0.0441705 0.0669922 0.0 
-1.46488e-33 -7.60718e-34 0.0 
-0.00976085 0.0333651 0.0 
-0.00054349 0.0178074 0.0 
-2.51562e-21 -8.6648e-22 0.0 
-3.31691e-21 -1.19104e-21 0.0 
0.0115899 -0.0110815 0.0 
-4.90245e-21 -5.6806e-22 0.0 
-0.0185565 0.228626 0.0 
0.0215949 0.00799331 0.0 
-2.90226e-22 6.86256e-23 0.0 
-6.28987e-34 -3.11884e-34 0.0 
0.00893151 -0.0109319 0.0 
0.327069 0.16663 0.0 
0.00688348 -0.00995136 0.0 
-8.79107e-36 -4.31263e-36 0.0 
-8.21899e-22 -2.81794e-22 0.0 
0.047362 0.0701393 0.0 
0.054828 0.0797913 0.0 
1.33749 0.609304 0.0 
0.00134837 -0.00118854 0.0 
-0.0170444 0.0212325 0.0 
0.00488529 0.0111036 0.0 
0.164238 0.253812 0.0 
-3.05884e-21 -1.10058e-21 0.0 
-0.0107839 0.058229 0.0 
-3.16435e-21 -1.48933e-21 0.0 
0.00570923 -0.00718867 0.0 
0.0255644 0.0110422 0.0 
-2.48246e-25 7.67937e-25 0.0 
0.201068 0.0109089 0.0 
-0.0152586 0.0266634 0.0 
-1.09968e-36 -5.73216e-37 0.0 
-3.24324e-21 -1.72764e-21 0.0 
-3.92462e-34 -7.41806e-34 0.0 
-1.22601e-26 -4.41962e-27 0.0 
0.00133293 0.000678095 0.0 
-0.000247992 -0.000797103 0.0 
4.91709e-06 -3.05167e-05 0.0 
1.33293 0.478493 0.0 
0.00646139 0.00318311 0.0 
-1.71982e-27 5.50501e-27 0.0 
-4.04618e-21 -1.44397e-21 0.0 
-1.01439e-21 -5.42718e-22 0.0 
0.00758387 -0.00266062 0.0 
0.0191311 0.0038769 0.0 
1.28269 0.577118 0.0 
-0.00157776 0.00465119 0.0 
0.000677648 0.0148151 0.0 
-9.62585e-37 -1.22263e-37 0.0 
0.332448 0.153587 0.0 
0.0100757 -0.00766239 0.0 
-4.84782e-08 1.65946e-06 0.0 
-4.60293e-22 -2.77584e-22 0.0 
-0.000132985 -0.000217025 0.0 
1.4902 0.545905 0.0 
-0.000571122 -0.000949461 0.0 
0.00305503 0.00155417 0.0 
0.000666751 0.000303353 0.0 
-9.66501e-26 -6.47544e-26 0.0 
-3.1715e-21 -1.724e-21 0.0 
0.660387 0.304938 0.0 
1.37263 0.260213 0.0 
-1.60473e-21 -1.06682e-21 0.0 
-4.59202e-22 -2.48455e-22 0.0 
0.494115 0.188777 0.0 
0.0137118 -0.0102988 0.0 
0.000716411 -0.00153045 0.0 
0.00187507 -0.00867147 0.0 
0.0408325 0.0110983 0.0 
0.904181 0.0183797 0.0 
-5.28485e-44 1.62569e-43 0.0 
0.0058932 -0.000876185 0.0 
1.32119 0.642096 0.0 
4.70356e-05 -0.000151861 0.0 
1.00034 0.4362 0.0 
-3.91916e-21 -1.41302e-21 0.0 
0.0438622 0.0719324 0.0 
0.00142177 -0.00183025 0.0 
0.00941017 -0.000167142 0.0 
-3.91137e-23 2.02005e-23 0.0 
-3.56214e-21 -3.55065e-22 0.0 
-1.87367e-38 4.46195e-38 0.0 
0.00224297 -0.00951803 0.0 
2.14212e-26 1.88973e-25 0.0 
0.0814491 -0.0112891 0.0 
0.0530369 0.0363961 0.0 
-6.81886e-33 -3.54031e-33 0.0 
-6.87961e-33 -3.45105e-33 0.0 
-1.04999e-28 -7.05282e-29 0.0 
0.0140937 0.000849535 0.0 
-5.39777e-33 -3.27896e-33 0.0 
-5.51919e-07 1.62704e-06 0.0 
-2.78726e-26 -3.08214e-27 0.0 
1.4598 0.311502 0.0 
-0.00962905 0.0274898 0.0 
0.00448133 -0.00750933 0.0 
0.0274976 0.0139887 0.0 
-0.0135141 0.036458 0.0 
-1.14402e-10 3.91611e-09 0.0 
-1.03906e-21 -3.735e-22 0.0 
-0.0131816 0.0645687 0.0 
-5.23103e-33 5.45299e-34 0.0 
1.17296 0.534582 0.0 
0.143119 0.00962705 0.0 
-3.53229e-21 -1.90983e-21 0.0 
0.00138296 -0.00426324 0.0 
-8.03512e-30 -5.39643e-30 0.0 
-6.46465e-33 -3.29425e-33 0.0 
0.00478171 -0.00415317 0.0 
0.00875296 -0.0114336 0.0 
1.43398 0.148686 0.0 
-4.67664e-22 -1.63037e-22 0.0 
-2.91465e-22 -1.49825e-22 0.0 
-0.000520044 -0.000944292 0.0 
-0.0145465 0.12046 0.0 
-1.97443e-06 1.50718e-05 0.0 
-7.28001e-33 -3.54807e-33 0.0 
-1.60338e-21 -8.65872e-22 0.0 
-1.04017e-07 3.56062e-06 0.0 
0.000912439 0.000326664 0.0 
0.00267769 -0.00911148 0.0 
1.07712 0.315061 0.0 
-0.000641734 -0.00262053 0.0 
0.0182674 0.0554296 0.0 
4.8889e-06 -7.64257e-05 0.0 
2.55296e-53 1.95644e-53 0.0 
-1.24968e-09 4.27779e-08 0.0 
-1.26918e-33 -6.23703e-34 0.0 
8.26498e-55 6.33205e-55 0.0 
-2.24687e-21 -8.01648e-22 0.0 
0.118909 0.104602 0.0 
0.0630635 0.147281 0.0 
-7.30455e-33 -3.72294e-33 0.0 
-0.00324489 -0.0136178 0.0 
-0.003159 0.0236174 0.0 
-3.45237e-21 1.10026e-22 0.0 
-4.10941e-21 -3.43979e-22 0.0 
0.00331612 -0.0105898 0.0 
-8.45908e-44 2.17112e-43 0.0 
-4.038e-21 -1.65085e-22 0.0 
-3.62921e-24 5.4552e-24 0.0 
-0.0022909 -0.00218264 0.0 
-5.36349e-33 -5.61123e-34 0.0 
0.000936036 -0.00166031 0.0 
0.993913 0.465658 0.0 
-0.011067 0.110534 0.0 
-2.56072e-50 1.16865e-50 0.0 
0.633154 0.172863 0.0 
-1.20235e-21 2.81868e-22 0.0 
0.00231425 -0.0166144 0.0 
-4.06767e-23 -2.20037e-23 0.0 
1.26636 0.501729 0.0 
0.0838996 0.0130607 0.0 
4.17362e-59 3.41893e-59 0.0 
-4.81556e-33 -2.45081e-33 0.0 
1.18294 0.40447 0.0 
0.000560015 -0.00141781 0.0 
1.45015 0.592794 0.0 
0.00457505 -0.0113802 0.0 
0.543041 0.047161 0.0 
-6.74189e-33 -3.46238e-34 0.0 
0.848375 0.147248 0.0 
0.379839 0.0443863 0.0 
-0.000820989 0.00242025 0.0 
-4.40619e-21 -4.58646e-22 0.0 
-0.00112453 -0.00148203 0.0 
-2.49671e-21 -1.02325e-21 0.0 
0.00639247 0.00309797 0.0 
-1.10742e-24 1.90003e-24 0.0 
0.00166407 -0.00841437 0.0 
-0.00119867 -0.00864722 0.0 
-2.92895e-33 -1.51671e-33 0.0 
-2.20807e-33 -1.0862e-33 0.0 
0.000204144 1.37347e-05 0.0 
1.45234 0.553208 0.0 
0.0172463 0.126406 0.0 
0.00176908 0.00463351 0.0 
-0.00226244 -0.0021502 0.0 
-2.07977e-33 -1.09362e-33 0.0 
1.45112 0.509472 0.0 
0.802847 0.0888699 0.0 
-0.0165566 0.0344861 0.0 
0.00432516 0.00199564 0.0 
-0.000196684 0.00673271 0.0 
1.39536 0.577067 0.0 
0.0226214 0.0518991 0.0 
-4.77024e-21 -1.28316e-21 0.0 
-0.00229396 0.00732336 0.0 
-0.000848425 -0.0121857 0.0 
-2.07525e-21 -8.69769e-23 0.0 
3.12432e-26 1.92018e-26 0.0 
-5.22949e-33 -2.34347e-33 0.0 
-0.000541585 0.0327105 0.0 
-5.31445e-33 -2.77324e-33 0.0 
-0.000114116 0.0039057 0.0 
0.0695205 0.0196333 0.0 
-0.00196186 -0.0146484 0.0 
0.00348081 -0.0133654 0.0 
-1.6098e-06 5.51054e-05 0.0 
-0.00159461 -0.0124305 0.0 
0.00326574 -0.0155081 0.0 
0.00213694 -0.0116298 0.0 
0.0917196 0.285524 0.0 
-0.00054162 -0.0101663 0.0 
0.00210536 -0.0125068 0.0 
-3.72917e-21 -1.59286e-21 0.0 
-4.85085e-33 -2.54645e-33 0.0 
1.09768 0.4073 0.0 
0.960828 0.390426 0.0 
0.00184319 -0.00878926 0.0 
0.000250912 -0.0004778 0.0 
0.252241 0.014407 0.0 
-0.000327374 -0.00932832 0.0 
-5.09977e-33 -2.6182e-33 0.0 
3.47551e-39 7.27509e-39 0.0 
1.23164 0.139583 0.0 
1.24283 0.39317 0.0 
0.0389936 0.023185 0.0 
0.000924389 -0.0103398 0.0 
-2.00271e-33 -1.10253e-33 0.0 
0.02623 0.0281807 0.0 
1.3038 0.192885 0.0 
-0.000217061 0.00245998 0.0 
-2.6448e-33 -7.59938e-34 0.0 
-2.01383e-24 -7.25964e-25 0.0 
-1.07446e-35 4.29712e-36 0.0 
0.37529 0.0173142 0.0 
-2.97108e-25 -1.07104e-25 0.0 
-0.00642409 0.0191872 0.0 
0.989432 0.453047 0.0 
-4.07164e-33 -2.01595e-33 0.0 
-1.22622e-23 2.00629e-23 0.0 
-0.000353115 -0.0120035 0.0 
-1.73932e-21 -1.01062e-21 0.0 
-0.000909825 -0.00465333 0.0 
-2.40689e-21 6.69085e-22 0.0 
0.00223912 -0.0140686 0.0 
0.00146167 -0.0137854 0.0 
0.419753 0.118251 0.0 
-0.000195707 -0.000540431 0.0 
8.531e-06 5.35863e-05 0.0 
0.000497216 -0.0144384 0.0 
-0.000603628 0.0205796 0.0 
-6.7862e-33 4.73786e-35 0.0 
0.00184934 -0.00868119 0.0 
0.00927085 -0.0105682 0.0 
0.0761804 0.065186 0.0 
0.000937352 0.00634607 0.0 
-0.00910511 0.0555614 0.0 
6.28455e-05 -0.00318574 0.0 
0.000135367 -0.00876629 0.0 
-1.19077e-21 -4.27558e-22 0.0 
0.000336488 -0.000996232 0.0 
-0.0253091 0.173029 0.0 
-0.00121176 -0.0111309 0.0 
1.46578 0.313192 0.0 
-0.00600048 0.0164496 0.0 
-3.08459e-35 4.73781e-35 0.0 
0.00111893 -0.0017331 0.0 
0.00137443 -0.00886748 0.0 
0.000171193 -0.000568066 0.0 
0.0120079 0.000397813 0.0 
-0.00410541 -0.0137179 0.0 
0.000335292 -0.014708 0.0 
1.2532e-26 3.53022e-26 0.0 
0.00444107 0.0313981 0.0 
-0.012521 0.266322 0.0 
-3.7379e-36 2.07814e-36 0.0 
0.000749524 -0.00173889 0.0 
0.0108659 0.0027374 0.0 
-6.30555e-47 -3.19574e-47 0.0 
-1.11863e-22 -2.56006e-23 0.0 
0.00529604 -0.0127498 0.0 
-0.00741183 0.0350319 0.0 
-3.74707e-21 6.68858e-22 0.0 
-0.00624601 0.0218332 0.0 
-0.00113971 0.00572988 0.0 
1.48046 0.404635 0.0 
0.00610713 -0.0187721 0.0 
0.00122833 -0.0098427 0.0 
-0.00281537 0.00898726 0.0 
0.000781235 0.00597416 0.0 
-2.43328e-41 -3.09631e-42 0.0 
-0.00343078 0.0270193 0.0 
0.000744926 -0.00150231 0.0 
0.000735616 -0.0146097 0.0 
-1.06168e-46 -5.55821e-47 0.0 
8.12826e-05 0.000209797 0.0 
0.000795222 -0.00382113 0.0 
4.28626e-48 2.05434e-47 0.0 
8.28164e-64 -2.58118e-66 0.0 
0.00294846 -0.0109009 0.0 
6.08936e-06 0.000244128 0.0 
-5.38926e-06 -1.14199e-05 0.0 
-2.65016e-50 1.20946e-50 0.0 
-2.53445e-40 -5.89712e-41 0.0 
0.00149393 -0.0017379 0.0 
-0.00841171 -0.0235581 0.0 
-0.00514527 0.0289175 0.0 
0.00725694 -0.016388 0.0 
-0.000239652 -0.000445412 0.0 
3.06118e-05 -0.000340111 0.0 
5.10593e-53 3.91288e-53 0.0 
1.44441e-51 1.54849e-51 0.0 
0.00121075 -0.00495182 0.0 
0.000839689 -0.0094709 0.0 
-0.00414892 0.0192105 0.0 
1.27842e-37 1.8162e-37 0.0 
-0.000611967 -0.0139675 0.0 
-0.00137369 -0.0143914 0.0 
0.00102474 -0.0136778 0.0 
-0.00040376 -0.0140083 0.0 
-0.00129657 0.0102788 0.0 
-0.00496456 -0.0128553 0.0 
0.000128126 0.000330705 0.0 
1.24661 0.634621 0.0 
-0.0173023 0.229618 0.0 
0.00045376 -0.00153467 0.0 
0.0998953 0.0624342 0.0 
0.0268165 0.048392 0.0 
0.00152796 -0.00193909 0.0 
-4.96897e-21 -1.09839e-21 0.0 
0.000865654 -0.00299711 0.0 
-3.43158e-25 2.65517e-26 0.0 
-0.000552543 0.00151815 0.0 
-0.00484959 0.0175078 0.0 
0.000847201 0.00588216 0.0 
-2.97127e-33 1.93883e-34 0.0 
0.0302568 0.0201289 0.0 
-0.000312234 0.00243106 0.0 
0.0448851 0.0538681 0.0 
-0.000706619 -0.000746324 0.0 
-0.00417148 0.0176024 0.0 
-0.000973005 0.0106834 0.0 
-0.00136533 -0.00300274 0.0 
-0.00907703 0.0273047 0.0 
0.000979784 -0.00183852 0.0 
0.0151982 0.00149887 0.0 
-6.3062e-53 1.93905e-53 0.0 
-0.0153003 0.0662552 0.0 
-6.97577e-05 -0.000863603 0.0 
-0.0118448 0.0511514 0.0 
-0.00085761 -0.013654 0.0 
0.00101419 -0.0111155 0.0 
9.01635e-05 -0.0116146 0.0 
0.0155629 0.00206705 0.0 
0.000242662 -0.0135086 0.0 
-0.000865207 -0.0141612 0.0 
0.0177919 0.0151237 0.0 
-0.00174651 -0.013275 0.0 
0.00861138 -0.00923773 0.0 
0.00137621 -0.00920286 0.0 
-0.00171665 -0.0133574 0.0 
0.0494666 0.0475544 0.0 
-0.00194505 -0.013713 0.0 
0.0141041 0.00142867 0.0 
0.00368691 -0.0126456 0.0 
-2.6725e-23 4.17747e-23 0.0 
-0.00157508 -0.00172917 0.0 
-0.000739541 -0.0122349 0.0 
-0.011289 0.0340181 0.0 
-0.00315365 -0.0107338 0.0 
-6.26903e-38 3.94083e-38 0.0 
0.00823986 -0.00601926 0.0 
0.00110374 -0.00170894 0.0 
-0.0011647 -0.00584765 0.0 
-7.56722e-33 -1.46571e-33 0.0 
0.00160235 -0.0126144 0.0 
-5.41052e-55 2.29602e-55 0.0 
-2.86363e-44 7.34982e-44 0.0 
0.00300048 -0.0135427 0.0 
-0.000848199 -0.000642527 0.0 
-0.00530399 -0.0155605 0.0 
-6.83489e-24 1.25427e-23 0.0 
-0.00123436 -0.00286827 0.0 
-0.00496584 -0.0200546 0.0 
0.0464579 0.0475694 0.0 
0.00159324 0.00139565 0.0 
0.0367851 0.037763 0.0 
-0.000422414 -0.000382521 0.0 
0.00569624 -0.00514489 0.0 
-6.12005e-35 3.93574e-35 0.0 
-0.000836536 -0.00137228 0.0 
-0.0151124 0.0295304 0.0 
8.24946e-05 -0.0010414 0.0 
0.00406093 -0.00946987 0.0 
-3.46732e-05 -0.000908386 0.0 
-0.00560241 -0.0168519 0.0 
-0.000128251 -0.00106057 0.0 
0.000768173 -0.00496734 0.0 
0.0497396 0.0459748 0.0 
-1.20881e-23 -1.3367e-24 0.0 
-5.08575e-21 -9.08332e-22 0.0 
0.00379775 0.00495224 0.0 
-0.00184365 -0.000801787 0.0 
-0.0010735 -0.00331063 0.0 
-0.00118161 -0.00130769 0.0 
0.0010987 -0.00280923 0.0 
-7.67114e-39 2.32867e-37 0.0 
0.00600691 0.00616472 0.0 
-0.00183928 -0.00191913 0.0 
1.17818 0.0204204 0.0 
0.00699833 -0.0137455 0.0 
-0.000801298 -0.000716297 0.0 
0.000688424 -0.00108626 0.0 
-0.00131639 -0.00378176 0.0 
-0.000941044 -0.00068485 0.0 
0.0465249 0.0498213 0.0 
0.00186745 -0.0103836 0.0 
-0.00156719 -0.00210236 0.0 
-9.68571e-22 3.31109e-22 0.0 
-0.00910119 -0.0178194 0.0 
0.00998575 -0.00242622 0.0 
-1.85263e-22 -6.65193e-23 0.0 
0.00928657 -0.0125352 0.0 
-7.89993e-33 -1.17295e-33 0.0 
-0.00137844 -0.00250939 0.0 
-0.000306078 -0.000711385 0.0 
-0.00908934 -0.0186723 0.0 
-2.05037e-05 -0.000722615 0.0 
-4.74614e-05 -0.000295263 0.0 
-0.0157569 0.140029 0.0 
-9.04175e-05 -0.000593649 0.0 
-0.00208805 -0.00140592 0.0 
-0.000669799 -0.00163939 0.0 
0.0118991 -0.000159292 0.0 
-0.000252974 -0.000184825 0.0 
-0.00645594 0.020206 0.0 
-0.00021074 -0.00124447 0.0 
-0.00125861 -0.00260427 0.0 
-0.00378837 -0.0118128 0.0 
0.000253074 -0.00109469 0.0 
1.49574e-05 -0.00103692 0.0 
0.000495402 -0.00110186 0.0 
-2.19404e-05 -0.00773735 0.0 
1.45971e-38 8.51508e-38 0.0 
-4.91308e-05 -0.000106108 0.0 
3.16188e-54 7.90897e-54 0.0 
-0.00414839 -0.0139843 0.0 
-0.00226695 -0.00349379 0.0 
-1.37738e-26 4.26086e-26 0.0 
-0.00243153 -0.00944608 0.0 
2.0857e-67 -3.88553e-67 0.0 
-0.000909047 -0.00074502 0.0 
0.00045282 -0.00154698 0.0 
0.0312581 0.0497434 0.0 
1.71798e-05 -1.87198e-05 0.0 
9.60468e-05 -0.000737659 0.0 
0.00492768 -0.00825005 0.0 
0.0445914 0.0505822 0.0 
0.00392008 -0.00387209 0.0 
0.0498575 0.050178 0.0 
-0.00143827 -0.00188941 0.0 
0.00936724 -0.00855992 0.0 
-0.00180024 -0.00220616 0.0 
-6.41535e-23 -2.31266e-23 0.0 
-2.87969e-22 -8.45076e-24 0.0 
-0.000486254 -0.000878179 0.0 
0.0527993 0.0546228 0.0 
-0.000321174 -0.000264667 0.0 
-7.47259e-86 -1.25314e-85 0.0 
-0.00206316 -0.00303268 0.0 
-0.00011054 -0.00124733 0.0 
-0.00025983 -0.000895975 0.0 
-6.49668e-35 8.66682e-35 0.0 
-0.000704779 -0.000903029 0.0 
0.000854094 -0.00169646 0.0 
-9.53675e-40 3.39986e-39 0.0 
0.000798001 0.0124508 0.0 
-1.59342e-05 -6.87595e-05 0.0 
-0.000499489 -0.00153874 0.0 
0.000383858 -0.00131583 0.0 
-1.49542e-06 -2.1346e-05 0.0 
-0.000939214 -0.000921524 0.0 
-0.00103203 -0.00420784 0.0 
1.23326e-24 3.65371e-24 0.0 
-0.000986112 -0.0126421 0.0 
0.000932688 -0.00262868 0.0 
-2.50895e-48 1.15376e-48 0.0 
2.71038e-54 7.30251e-54 0.0 
-0.00377131 -0.0129716 0.0 
-0.00368248 -0.00824994 0.0 
7.17465e-05 -0.0013798 0.0 
0.00108329 0.320892 0.0 
0.0320586 0.014894 0.0 
-0.00592887 -0.016284 0.0 
-0.000659686 -0.000297047 0.0 
0.0011505 -0.0016895 0.0 
-0.000976568 -0.0133444 0.0 
0.00735645 -0.013864 0.0 
-0.00209028 -0.00763531 0.0 
-5.52033e-35 3.15649e-35 0.0 
3.54723e-28 8.05202e-28 0.0 
0.00998913 -0.0122058 0.0 
0.000156041 -0.000821225 0.0 
5.36262e-09 -2.88249e-08 0.0 
-0.000842454 -0.000760786 0.0 
-0.00172842 -0.00156565 0.0 
0.000167008 -0.00132803 0.0 
-0.00133969 -0.0086051 0.0 
4.34998e-39 1.01744e-38 0.0 
-0.000929184 -0.00358526 0.0 
0.000717502 -0.00161964 0.0 
-0.00150963 -0.00195027 0.0 
0.000349281 -0.00771557 0.0 
0.000533595 -0.00138175 0.0 
-0.00459563 0.0135746 0.0 
-0.000390007 -0.000591611 0.0 
-0.000810739 -0.00307951 0.0 
-0.00164395 -0.00300647 0.0 
0.0277151 0.0113761 0.0 
3.95881e-24 1.74041e-23 0.0 
-0.00220313 -0.00717359 0.0 
0.00698605 -0.00821806 0.0 
0.000264866 -0.0128423 0.0 
-3.43999e-05 -2.98127e-05 0.0 
-8.27424e-30 1.15694e-29 0.0 
0.00896648 0.00139065 0.0 
-0.000873828 -0.000662447 0.0 
0.0106456 -0.00243595 0.0 
-0.000902117 -0.000823251 0.0 
-0.00131542 -0.00476986 0.0 
-0.00225914 -0.00367777 0.0 
-0.00933891 0.0336571 0.0 
-0.000163785 -0.000325415 0.0 
-8.44052e-23 4.72107e-23 0.0 
-0.000744306 -0.000747432 0.0 
-0.0020077 -0.0139467 0.0 
-0.00120266 -0.0135691 0.0 
1.26226 0.246157 0.0 
-0.00140245 -0.00199761 0.0 
0.00415813 -0.0116249 0.0 
-5.35636e-21 -1.43187e-21 0.0 
-0.0010967 -0.00228728 0.0 
-0.00169502 -0.00100255 0.0 
-0.0017151 -0.00150357 0.0 
6.7758e-59 5.55057e-59 0.0 
0.000468105 -0.0127096 0.0 
0.0421001 0.0558227 0.0 
-0.000544968 -0.000886219 0.0 
-0.00163326 -0.0132285 0.0 
-0.000198717 -0.000421013 0.0 
-6.21386e-05 -0.000125772 0.0 
-0.00198911 -0.0136301 0.0 
0.010191 -0.00363144 0.0 
-1.35373e-05 -4.51246e-05 0.0 
0.00998735 -0.0019227 0.0 
-0.00140094 -0.00254644 0.0 
-1.37017e-24 3.2981e-24 0.0 
-0.00379479 -0.0133241 0.0 
-0.00100303 -0.000860143 0.0 
-0.000217344 -0.00126764 0.0 
-0.00274035 -0.0137552 0.0 
-0.0185864 0.197839 0.0 
0.00458151 -0.00767532 0.0 
-0.00545601 -0.0144908 0.0 
-0.000972857 -0.00116763 0.0 
0.00957736 0.00174412 0.0 
8.13813e-66 -8.26215e-66 0.0 
0.00865175 0.000658142 0.0 
0.0234007 0.00706007 0.0 
1.51065 0.469162 0.0 
-1.38782e-05 -0.0011563 0.0 
-0.00505568 -0.0139918 0.0 
0.000441504 -0.00149052 0.0 
9.69645e-26 1.69341e-25 0.0 
-0.00263073 -0.0139221 0.0 
7.18776e-45 3.44501e-44 0.0 
-0.00509206 -0.014921 0.0 
4.93475e-30 3.81319e-30 0.0 
-0.000598854 -0.000888513 0.0 
-1.22001e-24 2.69487e-24 0.0 
-0.00525708 -0.0151077 0.0 
-0.000130275 -0.000300949 0.0 
0.013054 0.00145323 0.0 
0.00337667 -0.0144018 0.0 
1.22131 -0.016883 0.0 
1.25982 0.337952 0.0 
-5.48082e-05 -0.000118825 0.0 
0.0138475 0.00681893 0.0 
-0.000162975 -0.000546586 0.0 
0.0121524 0.00334359 0.0 
-6.62985e-06 -2.05815e-05 0.0 
-0.00371723 -0.0135151 0.0 
9.21147e-41 9.44808e-38 0.0 
-0.00048402 -0.000964366 0.0 
0.000265692 -0.00148488 0.0 
-0.00175504 -0.0138789 0.0 
1.07988e-05 -0.00073214 0.0 
0.000156907 -0.00135291 0.0 
-1.19425e-21 3.78559e-22 0.0 
-0.00336615 -0.0113035 0.0 
0.000409386 -0.00631178 0.0 
1.21917 -0.0924165 0.0 
-8.43328e-06 -0.00109031 0.0 
1.0826 0.292193 0.0 
-0.000237367 -0.000934335 0.0 
0.000540329 -0.00146647 0.0 
-0.000762818 -0.00183386 0.0 
-0.005878 -0.0105169 0.0 
-8.58701e-26 1.20067e-25 0.0 
-4.87267e-05 -0.000673854 0.0 
-0.00165806 -0.00204238 0.0 
-0.00116455 -0.0010387 0.0 
-0.000920979 -0.00165932 0.0 
-0.000111162 -0.000731468 0.0 
1.43157e-25 1.10932e-25 0.0 
0.00237297 -0.00410233 0.0 
-0.000861459 -0.000438136 0.0 
-0.00103738 -0.000653197 0.0 
5.77524e-25 1.84786e-24 0.0 
3.22709e-05 -0.00137986 0.0 
-7.25081e-55 8.45473e-56 0.0 
0.000314969 -0.00167866 0.0 
-0.000588612 -0.000499299 0.0 