<VTKFile type="UnstructuredGrid" version="0.1" byte_order="LittleEndian">
  <UnstructuredGrid>
    <Piece NumberOfPoints="19078" NumberOfCells="38067">
      <Points>
        <DataArray type = "Float64" NumberOfComponents="3" format="ascii">
6.31854 5.11718 0.0 
6.30783 4.90894 0.0 
6.35532 4.9761 0.0 
6.08324 4.97274 0.0 
6.0991 4.92537 0.0 
6.27377 4.96531 0.0 
6.22918 4.96493 0.0 
6.33892 5.03205 0.0 
6.01903 4.95471 0.0 
6.24111 4.95027 0.0 
6.26752 4.93277 0.0 
6.1526 4.95112 0.0 
6.11397 5.02931 0.0 
6.24415 4.97064 0.0 
6.09622 4.83053 0.0 
6.23438 4.94113 0.0 
6.28029 4.96582 0.0 
6.23744 4.9116 0.0 
5.87346 4.86569 0.0 
6.11008 4.98002 0.0 
6.0521 5.02324 0.0 
6.05668 4.96131 0.0 
5.90312 4.98668 0.0 
6.21869 4.94504 0.0 
6.22905 4.94484 0.0 
5.93858 5.0045 0.0 
6.17403 4.96299 0.0 
6.24313 4.93062 0.0 
5.63647 4.80653 0.0 
6.24039 4.97304 0.0 
5.97939 4.9902 0.0 
6.31924 4.973 0.0 
6.02015 5.03258 0.0 
6.22122 4.95629 0.0 
5.77899 4.96733 0.0 
5.90996 4.81367 0.0 
6.22261 5.0051 0.0 
6.29237 4.99114 0.0 
6.28902 4.98365 0.0 
6.09692 4.94434 0.0 
6.29915 5.01514 0.0 
6.0796 5.03665 0.0 
6.20061 4.89986 0.0 
6.09679 4.93422 0.0 
6.29054 4.9995 0.0 
6.24323 4.95816 0.0 
6.23866 4.97709 0.0 
6.32672 5.00232 0.0 
6.27298 4.98095 0.0 
6.21056 4.93317 0.0 
5.64278 4.84092 0.0 
6.24401 4.93793 0.0 
6.25871 4.94955 0.0 
6.30088 4.98111 0.0 
6.26572 4.93851 0.0 
6.28151 4.93527 0.0 
6.16204 5.11962 0.0 
6.20353 4.94896 0.0 
6.22968 4.92731 0.0 
5.72 4.91163 0.0 
6.29325 4.97028 0.0 
6.29334 4.96847 0.0 
6.22806 4.96068 0.0 
5.99448 4.94166 0.0 
6.26594 4.96787 0.0 
6.31789 4.93582 0.0 
6.19673 4.95762 0.0 
6.27863 4.95826 0.0 
6.2589 4.92758 0.0 
6.27488 4.97779 0.0 
6.2739 4.97421 0.0 
6.24956 4.95653 0.0 
6.07962 4.9877 0.0 
6.26935 4.95115 0.0 
6.22823 4.9338 0.0 
6.29821 4.93145 0.0 
6.15888 4.97117 0.0 
6.26522 4.97155 0.0 
6.29356 4.96193 0.0 
6.29822 4.95682 0.0 
6.27699 5.00362 0.0 
6.24808 4.94798 0.0 
6.26964 4.98618 0.0 
6.28186 4.9559 0.0 
6.28173 4.98697 0.0 
6.34089 5.01716 0.0 
6.32346 4.96719 0.0 
6.32126 4.95149 0.0 
6.0794 4.91268 0.0 
6.30573 4.97207 0.0 
6.03069 4.86612 0.0 
6.20767 4.96855 0.0 
6.29105 4.96403 0.0 
6.28426 4.96136 0.0 
6.33354 4.96509 0.0 
5.86198 4.98111 0.0 
5.76766 4.89794 0.0 
6.20156 4.96303 0.0 
6.27538 4.9461 0.0 
6.1863 4.97851 0.0 
6.15806 4.94456 0.0 
5.81652 4.97611 0.0 
6.30634 4.95316 0.0 
6.24611 4.94362 0.0 
6.36047 5.01403 0.0 
6.10429 4.86328 0.0 
6.27455 4.92143 0.0 
6.10829 4.99316 0.0 
6.23319 4.87915 0.0 
6.13766 5.04759 0.0 
6.2064 5.04701 0.0 
6.36991 5.03332 0.0 
6.14194 4.86228 0.0 
6.29994 4.98921 0.0 
6.20405 4.91545 0.0 
5.70438 4.83673 0.0 
6.37587 5.05654 0.0 
5.98152 5.02078 0.0 
6.27771 4.95273 0.0 
5.88685 4.90862 0.0 
6.19632 5.01507 0.0 
6.34585 4.99009 0.0 
6.29257 4.97198 0.0 
6.13716 4.98461 0.0 
6.30878 4.98613 0.0 
6.29328 4.97687 0.0 
6.17658 4.96991 0.0 
6.26359 4.99077 0.0 
6.26315 4.9738 0.0 
6.23107 5.06787 0.0 
5.79129 5.00074 0.0 
6.06143 4.92243 0.0 
6.00632 4.88174 0.0 
6.24193 4.922 0.0 
6.30957 4.99592 0.0 
5.88114 4.84018 0.0 
6.25602 4.93506 0.0 
6.33941 4.9982 0.0 
6.2791 4.99212 0.0 
6.20201 5.00125 0.0 
6.31145 5.00824 0.0 
6.24093 4.96741 0.0 
6.27656 4.96385 0.0 
6.19539 4.92561 0.0 
6.20842 4.9528 0.0 
6.30028 4.9755 0.0 
6.13342 5.01266 0.0 
6.28239 4.97144 0.0 
6.27195 4.96733 0.0 
6.31826 4.92611 0.0 
6.20063 4.94315 0.0 
6.30931 4.96081 0.0 
5.84081 5.00323 0.0 
5.68711 4.87627 0.0 
6.25703 4.98422 0.0 
5.80741 4.79811 0.0 
6.1314 4.93533 0.0 
6.27252 4.97087 0.0 
6.32078 4.94363 0.0 
6.27291 5.02821 0.0 
6.18767 4.95012 0.0 
6.318 5.07993 0.0 
6.27905 4.94935 0.0 
6.21986 4.98142 0.0 
6.21119 4.86784 0.0 
6.16188 4.97862 0.0 
5.77813 4.93104 0.0 
6.08576 5.01109 0.0 
6.36244 5.15943 0.0 
6.02051 5.00202 0.0 
6.04933 4.94513 0.0 
6.21752 5.01872 0.0 
6.27972 4.92843 0.0 
5.75712 4.86702 0.0 
6.25174 5.00958 0.0 
6.14096 4.91506 0.0 
6.20877 4.93988 0.0 
6.25157 4.95147 0.0 
6.24034 4.96104 0.0 
6.2859 4.95911 0.0 
6.29019 4.97395 0.0 
6.26458 4.96306 0.0 
6.27184 4.99686 0.0 
6.1754 5.03855 0.0 
6.27086 5.01065 0.0 
6.2838 4.96377 0.0 
6.2981 4.9219 0.0 
5.93835 4.97541 0.0 
6.27083 4.89683 0.0 
6.23479 4.89611 0.0 
6.18009 5.00409 0.0 
6.01704 4.97494 0.0 
6.31843 4.95918 0.0 
6.25835 4.96375 0.0 
6.12741 4.95185 0.0 
6.29217 4.95024 0.0 
5.94134 4.87227 0.0 
6.2331 4.99469 0.0 
6.13829 4.97387 0.0 
6.24002 5.00133 0.0 
6.20036 4.97699 0.0 
6.18131 4.94329 0.0 
6.25811 4.91676 0.0 
6.27471 5.09354 0.0 
6.17166 5.01771 0.0 
6.15582 4.90756 0.0 
6.24222 5.03231 0.0 
6.09443 4.95419 0.0 
5.67268 4.90387 0.0 
6.20282 4.88656 0.0 
6.32632 4.98791 0.0 
6.23331 4.95501 0.0 
6.12652 4.92221 0.0 
6.34478 4.98223 0.0 
6.09258 4.96158 0.0 
6.22648 4.98806 0.0 
6.21903 4.96696 0.0 
6.27834 5.13814 0.0 
6.23551 4.98172 0.0 
6.23106 5.10112 0.0 
6.25399 4.96987 0.0 
6.27523 4.96078 0.0 
6.27108 4.94255 0.0 
6.29942 5.04322 0.0 
6.14573 4.96137 0.0 
6.17504 4.95753 0.0 
5.98042 4.96361 0.0 
6.154 4.95705 0.0 
6.24627 4.98169 0.0 
6.01909 4.92541 0.0 
6.28673 4.95364 0.0 
6.13467 4.99545 0.0 
6.27475 4.96912 0.0 
6.11391 4.96803 0.0 
6.11319 4.90231 0.0 
6.29864 4.94691 0.0 
5.7085 4.78951 0.0 
6.26086 4.97644 0.0 
6.22161 4.93965 0.0 
6.15005 4.84033 0.0 
5.99596 5.05976 0.0 
6.23354 4.95822 0.0 
6.29897 4.94028 0.0 
5.61449 4.76311 0.0 
6.25733 4.94208 0.0 
6.11289 5.00825 0.0 
6.26104 4.9557 0.0 
6.26794 4.95949 0.0 
6.27226 4.95755 0.0 
6.26504 4.96051 0.0 
6.30056 4.96191 0.0 
6.27229 4.95485 0.0 
6.26175 4.96095 0.0 
6.26701 4.95701 0.0 
6.07497 5.09418 0.0 
6.27028 4.96263 0.0 
6.25699 4.96189 0.0 
6.26009 4.95806 0.0 
6.209 4.97369 0.0 
6.30174 4.9669 0.0 
6.24965 4.96151 0.0 
6.21474 4.9935 0.0 
6.26224 4.95305 0.0 
5.89059 4.95995 0.0 
6.25355 4.95952 0.0 
6.22439 4.91806 0.0 
6.25257 4.99595 0.0 
6.05665 5.00028 0.0 
6.3155 4.97912 0.0 
6.1362 5.08294 0.0 
6.33469 4.97577 0.0 
6.18272 4.90651 0.0 
6.19421 4.96854 0.0 
6.24588 4.97572 0.0 
6.2491 4.96399 0.0 
6.26605 4.94746 0.0 
6.28632 4.97989 0.0 
6.29119 4.96595 0.0 
6.37246 5.08707 0.0 
6.28049 4.91105 0.0 
6.25482 4.95468 0.0 
6.14864 5.025 0.0 
6.21801 4.90631 0.0 
6.04631 4.97786 0.0 
6.2249 4.97625 0.0 
5.79452 4.8402 0.0 
6.32965 4.95708 0.0 
6.21525 4.92569 0.0 
5.8894 4.93331 0.0 
6.2624 4.98123 0.0 
5.938 4.94752 0.0 
5.83299 4.9508 0.0 
6.00953 4.90259 0.0 
6.20569 4.95529 0.0 
6.06471 4.93431 0.0 
6.25123 4.97825 0.0 
5.83253 4.8841 0.0 
5.91782 4.89165 0.0 
6.12719 4.94357 0.0 
6.28239 4.97396 0.0 
6.1692 4.92747 0.0 
6.26252 4.96926 0.0 
6.23798 4.94637 0.0 
6.29507 4.95341 0.0 
5.83122 4.91763 0.0 
6.214 4.95844 0.0 
5.738 4.94095 0.0 
6.20742 4.98407 0.0 
6.23769 4.98776 0.0 
6.25501 4.94619 0.0 
6.25255 4.97376 0.0 
6.21608 4.96197 0.0 
6.32952 5.04637 0.0 
6.18089 4.85426 0.0 
6.36178 5.11559 0.0 
6.05949 4.85298 0.0 
6.23817 4.96388 0.0 
6.26564 4.96592 0.0 
6.15661 5.00549 0.0 
6.07718 4.89736 0.0 
6.22401 4.95332 0.0 
6.18042 4.99424 0.0 
6.2444 4.95328 0.0 
6.24891 4.98715 0.0 
6.22855 4.9721 0.0 
6.25807 4.96544 0.0 
6.28597 4.96659 0.0 
6.24767 4.96646 0.0 
6.28191 4.96878 0.0 
6.25542 4.9068 0.0 
6.08924 4.8809 0.0 
6.09984 5.06403 0.0 
6.2713 5.05704 0.0 
6.2912 4.95815 0.0 
6.17347 4.87627 0.0 
6.27983 4.96242 0.0 
6.18071 4.91656 0.0 
6.28528 4.9773 0.0 
6.17401 4.95219 0.0 
6.16266 4.98825 0.0 
6.16579 5.07759 0.0 
6.18053 4.93674 0.0 
6.17247 4.89309 0.0 
6.30983 4.94684 0.0 
5.96019 4.85109 0.0 
6.23138 4.95017 0.0 
6.24036 4.95466 0.0 
6.26669 4.96468 0.0 
6.28135 4.94035 0.0 
6.25621 4.96715 0.0 
6.28531 4.94506 0.0 
6.0294 4.82075 0.0 
6.21783 4.97151 0.0 
6.19417 4.93434 0.0 
5.99169 4.83253 0.0 
6.20548 5.12846 0.0 
6.30928 4.967 0.0 
6.21569 4.94821 0.0 
5.89065 5.01611 0.0 
6.23245 4.9689 0.0 
6.15736 4.93502 0.0 
6.13454 4.88966 0.0 
5.96428 4.91656 0.0 
6.05074 5.05717 0.0 
6.19682 4.98794 0.0 
6.91733 7.43705 0.0 
7.56006 7.50285 0.0 
6.44065 4.92319 0.0 
11.83 5.81663 0.0 
7.96092 3.88297 0.0 
11.0687 7.02662 0.0 
8.1143 2.84132 0.0 
6.37089 4.91078 0.0 
10.9221 3.53489 0.0 
6.38759 4.92508 0.0 
6.42331 4.89454 0.0 
6.29634 4.87118 0.0 
6.90485 5.52102 0.0 
7.35373 6.9797 0.0 
6.3943 4.95323 0.0 
6.33115 4.88256 0.0 
7.09113 4.91125 0.0 
6.54522 4.94502 0.0 
8.06301 5.24702 0.0 
6.49797 4.93579 0.0 
7.81086 5.29329 0.0 
8.29425 6.55281 0.0 
9.96701 4.41455 0.0 
8.0465 3.61346 0.0 
10.9965 3.87568 0.0 
7.68545 4.82829 0.0 
6.64227 4.9709 0.0 
8.83688 8 0.0 
11.5905 4.96122 0.0 
10.2509 4.69593 0.0 
7.25023 5.47885 0.0 
6.40168 4.9647 0.0 
11.6335 5.57356 0.0 
8.60495 3.52293 0.0 
10.4066 5.69044 0.0 
8.08952 4.4051 0.0 
7.91783 5.69332 0.0 
7.50783 4.86334 0.0 
6.40827 5.04017 0.0 
6.42403 4.97812 0.0 
6.51535 4.97858 0.0 
11.2205 5.99475 0.0 
8.12649 3.67768 0.0 
12.0657 6.0361 0.0 
7.68534 5.81114 0.0 
10.2282 4.33661 0.0 
11.7972 5.52333 0.0 
7.58022 5.33465 0.0 
7.89868 4.52896 0.0 
7.76476 4.65586 0.0 
11.398 5.04766 0.0 
6.43732 5.20558 0.0 
6.67468 5.56514 0.0 
7.24802 4.99893 0.0 
6.60974 5.46476 0.0 
8.21032 3.29586 0.0 
8.23579 3.03258 0.0 
6.32994 4.89903 0.0 
10.0149 4.04761 0.0 
7.31735 5.70543 0.0 
8.25596 2.91222 0.0 
8.16802 3.43746 0.0 
7.65219 5.4223 0.0 
8.19844 3.83807 0.0 
8.08153 2.53534 0.0 
8.06833 2.70717 0.0 
6.89137 5.62554 0.0 
8.13246 3.32168 0.0 
8.04703 3.06768 0.0 
8.13353 3.08106 0.0 
8.06032 3.45109 0.0 
6.34907 5.26177 0.0 
8.10434 4.06289 0.0 
6.40691 5.01116 0.0 
6.26191 4.88208 0.0 
10.5678 6.21021 0.0 
6.29163 4.88651 0.0 
6.46803 4.96356 0.0 
10.9243 5.07462 0.0 
11.1611 4.81674 0.0 
6.35711 4.96277 0.0 
8.15134 2.95991 0.0 
7.89524 3.78333 0.0 
7.97944 5.10708 0.0 
7.97554 3.5178 0.0 
8.267 8 0.0 
11.2141 4.54157 0.0 
6.51908 5.00616 0.0 
11.3859 4.73377 0.0 
8.18543 5.51638 0.0 
7.88713 3.62275 0.0 
6.34226 4.94908 0.0 
11.607 5.27864 0.0 
8.11703 5.3665 0.0 
6.73611 4.97916 0.0 
8.03155 3.33773 0.0 
6.49853 5.17545 0.0 
7.4355 5.79897 0.0 
8.20519 3.59649 0.0 
8.6031 5.50427 0.0 
7.9704 3.70407 0.0 
6.37077 4.96941 0.0 
8.21485 2.64758 0.0 
8.23541 7.58496 0.0 
[...]
<PointData>
  <DataArray type = "Float64" Name="Vitesse" NumberOfComponents="3" format="ascii">
0.318668 0.0412858 0.0 
-0.107003 0.038906 0.0 
0.0208802 0.0773284 0.0 
0.0297543 -0.186518 0.0 
-0.0688282 -0.176616 0.0 
-0.00698985 -0.00572791 0.0 
-0.00513944 -0.0498447 0.0 
0.137604 0.0596188 0.0 
-0.00889093 -0.251083 0.0 
-0.0379097 -0.0392196 0.0 
-0.072238 -0.0108288 0.0 
-0.0229609 -0.123444 0.0 
0.130775 -0.161584 0.0 
0.00598749 -0.0347741 0.0 
-0.259213 -0.196261 0.0 
-0.0567108 -0.0464515 0.0 
-0.00586266 0.000913551 0.0 
-0.11419 -0.042345 0.0 
-0.160965 -0.367352 0.0 
0.0439275 -0.159586 0.0 
0.109993 -0.227885 0.0 
0.00723167 -0.213035 0.0 
0.0354773 -0.357178 0.0 
-0.0475871 -0.0621891 0.0 
-0.0487375 -0.0517455 0.0 
0.0701238 -0.330713 0.0 
-0.000187462 -0.101624 0.0 
-0.0777881 -0.0371921 0.0 
-0.240234 -0.440166 0.0 
0.011747 -0.038147 0.0 
0.0433912 -0.295703 0.0 
0.0106807 0.0405897 0.0 
0.125632 -0.259857 0.0 
-0.0233764 -0.058567 0.0 
0.0168902 -0.413388 0.0 
-0.242837 -0.348537 0.0 
0.088249 -0.0498257 0.0 
0.0480116 0.0132408 0.0 
0.0317815 0.00971641 0.0 
-0.0271117 -0.174766 0.0 
0.101346 0.0214265 0.0 
0.137898 -0.200598 0.0 
-0.138006 -0.0829575 0.0 
-0.0489148 -0.176692 0.0 
0.0665827 0.0119285 0.0 
-0.0212272 -0.0366787 0.0 
0.0211308 -0.0392839 0.0 
0.0713532 0.0469999 0.0 
0.0265846 -0.00602872 0.0 
-0.072047 -0.071283 0.0 
-0.202404 -0.435313 0.0 
-0.0632935 -0.0364072 0.0 
-0.0396606 -0.0211161 0.0 
0.0263221 0.0214512 0.0 
-0.0613309 -0.0132156 0.0 
-0.0660077 0.00428474 0.0 
0.302471 -0.120434 0.0 
-0.0373522 -0.0766704 0.0 
-0.0845704 -0.0515055 0.0 
-0.0990961 -0.4316 0.0 
0.00373776 0.0140498 0.0 
1.22798e-05 0.0142035 0.0 
-0.0144233 -0.0513952 0.0 
-0.0337389 -0.273156 0.0 
-0.00144195 -0.0135502 0.0 
-0.0594076 0.0442267 0.0 
-0.0167639 -0.0817573 0.0 
-0.0214233 -0.000586533 0.0 
-0.0827608 -0.0198764 0.0 
0.0195704 -0.00436817 0.0 
0.0118843 -0.00544822 0.0 
-0.0250147 -0.0303955 0.0 
0.0550082 -0.192237 0.0 
-0.0361734 -0.0100155 0.0 
-0.0715522 -0.0529862 0.0 
-0.0707293 0.0232195 0.0 
0.021362 -0.113851 0.0 
0.00649578 -0.014136 0.0 
-0.0132636 0.0147432 0.0 
-0.0230332 0.0199998 0.0 
0.0773001 -0.000238353 0.0 
-0.0428416 -0.0321319 0.0 
0.0383529 -0.00889698 0.0 
-0.0260355 0.00289041 0.0 
0.0393357 0.00275755 0.0 
0.103948 0.0606629 0.0 
-0.000373511 0.0454537 0.0 
-0.0305276 0.0451329 0.0 
-0.0921009 -0.196772 0.0 
0.00788285 0.0267398 0.0 
-0.179105 -0.248513 0.0 
0.00628575 -0.0696671 0.0 
-0.00915026 0.0120247 0.0 
-0.0149058 0.00511135 0.0 
-0.00329942 0.0562305 0.0 
0.0284133 -0.38251 0.0 
-0.129709 -0.428164 0.0 
-0.00533712 -0.0763577 0.0 
-0.0458883 -0.00337292 0.0 
0.0333567 -0.0875154 0.0 
-0.0390757 -0.119934 0.0 
0.0282134 -0.400741 0.0 
-0.0293096 0.0289674 0.0 
-0.0517559 -0.0342033 0.0 
0.0973538 0.0790489 0.0 
-0.201109 -0.185355 0.0 
-0.0923243 -0.00166141 0.0 
0.0683071 -0.161971 0.0 
-0.17107 -0.0432665 0.0 
0.166644 -0.138712 0.0 
0.176428 -0.0643238 0.0 
0.139655 0.0875087 0.0 
-0.20593 -0.146751 0.0 
0.0436229 0.0205822 0.0 
-0.107849 -0.0790016 0.0 
-0.213361 -0.439938 0.0 
0.191792 0.0933647 0.0 
0.102064 -0.294896 0.0 
-0.0325982 -0.00129636 0.0 
-0.101679 -0.362566 0.0 
0.112528 -0.0739557 0.0 
0.0469959 0.0667559 0.0 
0.00721808 0.0133082 0.0 
0.0527222 -0.132428 0.0 
0.0369127 0.0292655 0.0 
0.0173229 0.0139027 0.0 
0.0152739 -0.0979798 0.0 
0.0492989 -0.0141311 0.0 
0.0114457 -0.0160593 0.0 
0.218004 -0.0411097 0.0 
0.105855 -0.396682 0.0 
-0.0673288 -0.209916 0.0 
-0.140446 -0.263758 0.0 
-0.0944814 -0.0381042 0.0 
0.0578129 0.0301481 0.0 
-0.196194 -0.361321 0.0 
-0.0686282 -0.0235301 0.0 
0.0634791 0.0597308 0.0 
0.0509026 0.000534245 0.0 
0.0824518 -0.0692172 0.0 
0.0852561 0.0328069 0.0 
-0.000866082 -0.0381961 0.0 
-0.00999839 -0.00286466 0.0 
-0.0866507 -0.0873616 0.0 
-0.0294345 -0.0713739 0.0 
0.0147085 0.021047 0.0 
0.105571 -0.137428 0.0 
0.00589792 0.00299621 0.0 
-0.00269808 -0.00754093 0.0 
-0.0760855 0.0468365 0.0 
-0.0497699 -0.0802596 0.0 
-0.0142502 0.0312947 0.0 
0.0907212 -0.38432 0.0 
-0.159579 -0.437965 0.0 
0.0351525 -0.0210655 0.0 
-0.244073 -0.404095 0.0 
-0.0540833 -0.145873 0.0 
0.00479442 -0.00690806 0.0 
-0.044763 0.0459557 0.0 
0.135011 -0.0010237 0.0 
-0.0322355 -0.0915429 0.0 
0.24679 0.0434246 0.0 
-0.0392499 0.000319168 0.0 
0.0338662 -0.0561481 0.0 
-0.192351 -0.0682357 0.0 
0.0374589 -0.109923 0.0 
-0.068195 -0.42268 0.0 
0.0952025 -0.189461 0.0 
0.398972 0.0760422 0.0 
0.0687824 -0.257451 0.0 
-0.0221047 -0.219478 0.0 
0.119802 -0.0525311 0.0 
-0.0789075 0.00314166 0.0 
-0.175277 -0.429824 0.0 
0.0944385 -0.0225425 0.0 
-0.101386 -0.141759 0.0 
-0.0577523 -0.0725763 0.0 
-0.0356828 -0.0284982 0.0 
-0.0147952 -0.0393393 0.0 
-0.019373 0.00693297 0.0 
0.0112454 0.0108559 0.0 
-0.0116007 -0.0150395 0.0 
0.0623688 -0.0057729 0.0 
0.157833 -0.0961283 0.0 
0.0944908 -0.00496136 0.0 
-0.0100058 0.00454527 0.0 
-0.0877351 0.0247851 0.0 
0.01304 -0.330676 0.0 
-0.135319 -0.00178717 0.0 
-0.142609 -0.0440018 0.0 
0.0901287 -0.0906007 0.0 
0.0235286 -0.256534 0.0 
-0.0163651 0.0411303 0.0 
-0.00997075 -0.0212699 0.0 
-0.0160157 -0.145853 0.0 
-0.0364347 0.0141602 0.0 
-0.148849 -0.316104 0.0 
0.0625561 -0.041847 0.0 
0.0301984 -0.132412 0.0 
0.0769811 -0.0345093 0.0 
0.0271768 -0.0748664 0.0 
-0.0465056 -0.0987258 0.0 
-0.102786 -0.0196932 0.0 
0.270584 0.0008301 0.0 
0.117415 -0.0989069 0.0 
-0.119717 -0.128862 0.0 
0.147566 -0.0281136 0.0 
-0.00605272 -0.175679 0.0 
-0.0995624 -0.424876 0.0 
-0.162098 -0.0798513 0.0 
0.0414899 0.047008 0.0 
-0.0273486 -0.0467913 0.0 
-0.0825457 -0.153447 0.0 
0.0312569 0.0660076 0.0 
0.00885303 -0.17708 0.0 
0.0482029 -0.0489842 0.0 
0.000794951 -0.059271 0.0 
0.347185 -0.00196298 0.0 
0.0321399 -0.0416201 0.0 
0.275997 -0.0470797 0.0 
0.00346678 -0.0252805 0.0 
-0.016348 -0.00417758 0.0 
-0.053154 -0.00771876 0.0 
0.166345 0.0245411 0.0 
0.0016602 -0.127547 0.0 
-0.0129842 -0.101825 0.0 
-0.00134622 -0.29085 0.0 
-0.00973535 -0.120925 0.0 
0.0306456 -0.0315284 0.0 
-0.0584571 -0.247913 0.0 
-0.0302395 0.00813285 0.0 
0.0740229 -0.134721 0.0 
0.00104919 -0.0047014 0.0 
0.0205844 -0.155968 0.0 
-0.123331 -0.169966 0.0 
-0.0420636 0.0214461 0.0 
-0.251823 -0.436936 0.0 
0.0173849 -0.0181053 0.0 
-0.0592214 -0.0596086 0.0 
-0.24215 -0.136967 0.0 
0.18792 -0.277978 0.0 
-0.0203891 -0.0462836 0.0 
-0.054593 0.0226703 0.0 
-0.266577 -0.441164 0.0 
-0.0547344 -0.0224102 0.0 
0.0950321 -0.158947 0.0 
-0.0269681 -0.0187151 0.0 
-0.0190988 -0.011639 0.0 
-0.0230346 -0.00716007 0.0 
-0.0169611 -0.0145809 0.0 
-0.0128342 0.022054 0.0 
-0.0285386 -0.00705106 0.0 
-0.0160251 -0.0179274 0.0 
-0.0242662 -0.0125793 0.0 
0.254466 -0.204333 0.0 
-0.0125595 -0.00925499 0.0 
-0.0139002 -0.0227109 0.0 
-0.0220756 -0.0196597 0.0 
0.0179228 -0.0675185 0.0 
-0.00276023 0.0229428 0.0 
-0.0143965 -0.0300774 0.0 
0.0628001 -0.0587664 0.0 
-0.0324609 -0.0174716 0.0 
-0.01788 -0.367075 0.0 
-0.0188376 -0.026265 0.0 
-0.102751 -0.0570569 0.0 
0.0626028 -0.0237846 0.0 
0.071951 -0.219137 0.0 
0.0226924 0.0363352 0.0 
0.230804 -0.144804 0.0 
0.0173597 0.0563125 0.0 
-0.124617 -0.101717 0.0 
0.00871977 -0.0821585 0.0 
0.0171933 -0.0325958 0.0 
-0.00903402 -0.0304871 0.0 
-0.0437418 -0.0133392 0.0 
0.0237792 0.00701466 0.0 
-0.00521714 0.0120854 0.0 
0.260904 0.0917912 0.0 
-0.109674 0.00669953 0.0 
-0.029037 -0.0251046 0.0 
0.129544 -0.122785 0.0 
-0.125502 -0.0637409 0.0 
0.0334983 -0.226252 0.0 
0.021166 -0.0523282 0.0 
-0.201052 -0.41152 0.0 
-0.0188643 0.0532761 0.0 
-0.0875659 -0.0667378 0.0 
-0.0643239 -0.364986 0.0 
0.0279525 -0.0162313 0.0 
-0.034382 -0.3275 0.0 
-0.0349926 -0.401148 0.0 
-0.100614 -0.257891 0.0 
-0.0235289 -0.0736781 0.0 
-0.0435288 -0.205405 0.0 
0.0222944 -0.0272077 0.0 
-0.144194 -0.397534 0.0 
-0.120553 -0.336667 0.0 
-0.0345427 -0.147775 0.0 
0.0112195 0.0030149 0.0 
-0.0793985 -0.112887 0.0 
0.0016698 -0.016922 0.0 
-0.0459487 -0.04256 0.0 
-0.0299849 0.0169591 0.0 
-0.0957392 -0.40177 0.0 
-0.0176647 -0.06527 0.0 
-0.0356586 -0.423516 0.0 
0.0422619 -0.0670996 0.0 
0.0457599 -0.0386988 0.0 
-0.0465294 -0.0249476 0.0 
0.0121252 -0.0263809 0.0 
-0.0100265 -0.0627861 0.0 
0.170835 0.0522428 0.0 
-0.21741 -0.102785 0.0 
0.320618 0.0815444 0.0 
-0.213891 -0.228427 0.0 
-0.00844267 -0.0412458 0.0 
-0.00557485 -0.013899 0.0 
0.0938429 -0.113061 0.0 
-0.125281 -0.202602 0.0 
-0.030194 -0.056145 0.0 
0.0695409 -0.0907074 0.0 
-0.0316903 -0.0357587 0.0 
0.0427946 -0.0283708 0.0 
0.0110996 -0.0495179 0.0 
-0.00634873 -0.0214854 0.0 
-0.00414139 0.00669885 0.0 
-0.00355543 -0.0316985 0.0 
0.000283597 0.00250667 0.0 
-0.120894 -0.0214486 0.0 
-0.163469 -0.196276 0.0 
0.189686 -0.181969 0.0 
0.199436 -3.15841e-05 0.0 
-0.0210165 0.0125057 0.0 
-0.181108 -0.112489 0.0 
-0.0128769 0.000499584 0.0 
-0.104049 -0.103001 0.0 
0.0182844 0.00595526 0.0 
-0.024985 -0.103818 0.0 
0.0583455 -0.107993 0.0 
0.223416 -0.113251 0.0 
-0.060926 -0.100567 0.0 
-0.15033 -0.113332 0.0 
-0.0407703 0.0334961 0.0 
-0.189379 -0.305261 0.0 
-0.0375763 -0.0490628 0.0 
-0.0285594 -0.0397597 0.0 
-0.0082164 -0.0128787 0.0 
-0.0565045 0.00352525 0.0 
-0.002612 -0.02325 0.0 
-0.0470904 0.00737609 0.0 
-0.267288 -0.261308 0.0 
0.0113882 -0.0596885 0.0 
-0.0680712 -0.087685 0.0 
-0.23455 -0.289291 0.0 
0.321941 -0.0784394 0.0 
-0.0021351 0.0307376 0.0 
-0.0404519 -0.0648631 0.0 
0.106392 -0.359629 0.0 
0.00337323 -0.0462217 0.0 
-0.0605032 -0.122618 0.0 
-0.153757 -0.152223 0.0 
-0.0775308 -0.298217 0.0 
0.175591 -0.230996 0.0 
0.0530903 -0.0761114 0.0 
1.29686 0.00629072 0.0 
1.28638 -0.0166098 0.0 
-0.0394673 0.184095 0.0 
0.698368 -0.169467 0.0 
0.505447 0.733138 0.0 
0.887654 -0.112712 0.0 
0.465785 0.427954 0.0 
-0.0847575 0.110855 0.0 
0.912899 -0.507756 0.0 
-0.0574639 0.125103 0.0 
-0.0845057 0.177524 0.0 
-0.16779 0.0363261 0.0 
1.22012 0.281518 0.0 
1.33433 -0.0159779 0.0 
-0.0107423 0.123277 0.0 
-0.139727 0.0747095 0.0 
0.347238 0.615977 0.0 
0.0362426 0.284164 0.0 
1.41504 -0.200859 0.0 
0.00269666 0.238953 0.0 
1.33216 -0.032443 0.0 
1.3541 -0.123682 0.0 
1.03674 -0.68395 0.0 
0.452814 0.67819 0.0 
0.937063 -0.535521 0.0 
0.760267 0.459777 0.0 
0.120254 0.358684 0.0 
1.17414 0 0.0 
0.844301 -0.381406 0.0 
1.01789 -0.603945 0.0 
1.29911 0.234538 0.0 
0.0101463 0.128013 0.0 
0.738108 -0.30782 0.0 
0.480496 0.0142789 0.0 
1.00161 -0.393155 0.0 
0.789482 0.335884 0.0 
1.61905 -0.166711 0.0 
0.624251 0.557546 0.0 
0.155487 0.122602 0.0 
0.0391033 0.147628 0.0 
0.0693775 0.23891 0.0 
0.820569 -0.29239 0.0 
0.473728 0.593567 0.0 
0.689663 -0.0140554 0.0 
1.62365 -0.0702071 0.0 
0.98102 -0.658235 0.0 
0.731711 -0.206974 0.0 
1.22875 0.12887 0.0 
0.728738 0.489478 0.0 
0.698096 0.534054 0.0 
0.840047 -0.463737 0.0 
0.491984 0.136121 0.0 
1.2204 0.226326 0.0 
0.532707 0.545818 0.0 
1.00962 0.225505 0.0 
0.396176 0.49356 0.0 
0.389005 0.423585 0.0 
-0.11595 0.0677816 0.0 
0.953524 -0.726901 0.0 
1.59408 0.103868 0.0 
0.396954 0.376852 0.0 
0.419237 0.552353 0.0 
1.43298 0.0153114 0.0 
0.551457 0.472097 0.0 
0.574698 0.294842 0.0 
0.523461 0.380719 0.0 
1.38354 0.237922 0.0 
0.410058 0.572244 0.0 
0.446648 0.553384 0.0 
0.414691 0.514236 0.0 
0.431906 0.656207 0.0 
0.581343 0.0551381 0.0 
0.618096 0.507905 0.0 
0.0948405 0.123805 0.0 
-0.161139 -0.0095263 0.0 
0.962444 -0.279579 0.0 
-0.146465 0.0259762 0.0 
0.0295373 0.196524 0.0 
0.907618 -0.503374 0.0 
0.89657 -0.526631 0.0 
-0.00401848 0.081515 0.0 
0.421713 0.464046 0.0 
0.478746 0.79654 0.0 
1.21792 -0.0450922 0.0 
0.448208 0.724675 0.0 
1.21878 0 0.0 
0.921219 -0.529955 0.0 
0.113714 0.232186 0.0 
0.893871 -0.488494 0.0 
1.58075 -0.290128 0.0 
0.467616 0.789866 0.0 
-0.0309662 0.0680837 0.0 
0.78045 -0.353061 0.0 
1.53717 -0.2681 0.0 
0.181483 0.422195 0.0 
0.431836 0.654442 0.0 
0.446597 0.189424 0.0 
1.59912 0.042692 0.0 
0.456872 0.512869 0.0 
1.47982 -0.399149 0.0 
0.468676 0.746637 0.0 
0.010879 0.0944225 0.0 
0.475041 0.308027 0.0 
1.25253 -0.0310793 0.0 
1.48642 0.192052 0.0 
-0.0932371 0.0629199 0.0 
1.50368 0.0249068 0.0 
1.22758 -0.519684 0.0 
0.0264607 0.102219 0.0 
1.02308 0.140035 0.0 
1.10818 -0.598763 0.0 
1.50549 -0.0599723 0.0 
0.758385 0.0778566 0.0 
1.00521 -0.0707389 0.0 
-0.0677172 0.0781571 0.0 
1.28241 -0.597288 0.0 
1.0926 -0.0888696 0.0 
0.984165 -0.395178 0.0 
0.397631 0.50849 0.0 
-0.04561 0.0942764 0.0 
0.381382 0.427385 0.0 
1.50325 0.102118 0.0 
0.363885 0.146202 0.0 
-0.125797 0.0334358 0.0 
1.0159 -0.219073 0.0 
1.25941 0 0.0 
-0.0500443 0.0659799 0.0 
0.241137 0.136415 0.0 
0.0505279 0.0971137 0.0 
0.0994227 0.0987524 0.0 
1.42393 -0.0464258 0.0 
0.144333 0.161789 0.0 
0.431904 0.389334 0.0 
1.18662 -0.104635 0.0 
0.765821 0.422649 0.0 
0.952296 0.241907 0.0 
0.998747 0.079783 0.0 
0.475734 0.466707 0.0 
1.07508 0.0594951 0.0 
0.885413 0.304688 0.0 
0.705376 0.414766 0.0 
0.640988 0.387219 0.0 
0.908477 0.115377 0.0 
0.393679 0.429992 0.0 
0.596471 0.424702 0.0 
0.465846 0.303456 0.0 
0.990856 0.263699 0.0 
1.60847 0.00317271 0.0 
0.553248 0.393511 0.0 
0.246042 0.333598 0.0 
0.404855 0.230471 0.0 
0.816373 -0.617749 0.0 
0.288057 0.186302 0.0 
0.430254 0.416069 0.0 
0.267192 0.255223 0.0 
0.349307 0.262164 0.0 
0.207405 0.178929 0.0 
0.00886522 0.0719364 0.0 
0.674431 0.484553 0.0 
0.335025 0.335168 0.0 
0.814819 0.386617 0.0 
1.07993 0.280703 0.0 
1.31698 -0.0478474 0.0 
0.589917 0.323312 0.0 
0.968221 0.342803 0.0 
0.385521 0.0365532 0.0 
0.362872 0.524261 0.0 
0.772226 0.352773 0.0 
0.731294 0.281755 0.0 
0.904791 0.323805 0.0 
0.717248 0.438109 0.0 
0.687956 0.363011 0.0 
0.719322 0.323774 0.0 
0.292804 0.433707 0.0 
0.827369 0.279151 0.0 
0.184074 0.35807 0.0 
0.502143 0.649183 0.0 
0.0683682 0.187913 0.0 
0.834475 0.377537 0.0 
0.92602 0.347962 0.0 
-0.105433 0.106491 0.0 
0.109464 0.294065 0.0 
0.657348 0.297377 0.0 
0.416478 -0.129818 0.0 
0.0611407 0.137494 0.0 
0.625998 0.152871 0.0 
0.81721 0.181895 0.0 
-0.13348 0.14515 0.0 
0.725599 -0.660622 0.0 
0.604825 -0.635018 0.0 
0.865955 0.346942 0.0 
0.1741 0.281231 0.0 
1.145 0.297449 0.0 
1.04346 0.312527 0.0 
1.08102 0.269489 0.0 
1.36064 0.24662 0.0 
1.07645 0.136168 0.0 
1.27428 0 0.0 
0.442356 -0.311898 0.0 
0.0975105 0.4175 0.0 
1.54016 -0.136367 0.0 
0.354718 -0.134055 0.0 
1.36884 -0.522552 0.0 
0.496118 0.447029 0.0 
1.50339 0.163796 0.0 
1.06186 -0.324714 0.0 
0.414498 0.0586941 0.0 
0.500716 -0.54755 0.0 
0.384539 -0.318565 0.0 
0.473152 -0.542964 0.0 
0.713503 -0.602521 0.0 
-0.116437 0.126592 0.0 
0.596542 -0.669956 0.0 
0.609352 -0.577517 0.0 
1.18584 -0.124387 0.0 
0.410732 -0.409135 0.0 
0.763352 -0.727952 0.0 
-0.0120037 0.0650402 0.0 
0.106999 0.176493 0.0 
0.527873 0.381751 0.0 
0.409329 -0.243243 0.0 
0.592877 0.484077 0.0 
0.538537 0.235757 0.0 
0.393788 -0.063806 0.0 
1.17593 -0.610985 0.0 
0.364628 -0.0678724 0.0 
0.818438 0.00725903 0.0 
-0.00680092 0.169459 0.0 
0.431775 0.693513 0.0 
0.938792 0 0.0 
0.422318 -0.403274 0.0 
0.646293 0.237232 0.0 
0.934878 -0.182982 0.0 
1.1555 -0.715942 0.0 
0.449133 -0.362393 0.0 
0.816416 0.111298 0.0 
0.384293 -0.283058 0.0 
0.362085 -0.221638 0.0 
0.904077 0.23648 0.0 
0.761616 -0.0935425 0.0 
0.904928 0 0.0 
0.375662 -0.175151 0.0 
1.03551 0 0.0 
-0.0125093 0.0945692 0.0 
1.17914 -0.363126 0.0 
-0.0670434 0.149593 0.0 
0.866736 -0.0426166 0.0 
0.951608 -0.125654 0.0 
0.79098 0.0452243 0.0 
0.971344 -0.441701 0.0 
1.11595 -0.248058 0.0 
1.15468 -0.172405 0.0 
0.943519 -0.496514 0.0 
1.26055 -0.673825 0.0 
0.463188 -0.433774 0.0 
0.517224 -0.510606 0.0 
1.35044 -0.417517 0.0 
0.761015 -0.542505 0.0 
0.420662 0.270657 0.0 
1.38198 0.130282 0.0 
0.394966 0.277956 0.0 
0.972096 -0.487071 0.0 
0.562359 0.735505 0.0 
0.899426 0 0.0 
1.50327 -0.38741 0.0 
0.830365 0.0927515 0.0 
0.434964 0.369594 0.0 
0.43463 0.231292 0.0 
0.852699 0 0.0 
0.927335 -0.560431 0.0 
0.553526 0.569712 0.0 
0.521366 0.609031 0.0 
0.371387 0.325842 0.0 
0.416323 0.141013 0.0 
0.945104 -0.554288 0.0 
0.94317 -0.454932 0.0 
0.497167 0.25161 0.0 
1.33416 -0.377718 0.0 
0.727808 0.150345 0.0 
1.08824 -0.068177 0.0 
1.53078 -0.25044 0.0 
0.559367 -0.444847 0.0 
0.927199 -0.0552734 0.0 
0.34978 -0.0487618 0.0 
0.427061 -0.0376115 0.0 
1.02427 -0.50727 0.0 
0.618233 -0.652525 0.0 
-0.0285689 0.0979213 0.0 
0.512521 0.670162 0.0 
0.869127 0 0.0 
0.578107 0.120755 0.0 
0.969901 -0.128184 0.0 
0.385596 -0.272335 0.0 
0.357752 -0.153122 0.0 
0.381097 0.450049 0.0 
0.840985 0.000859141 0.0 
0.722513 -0.256723 0.0 
0.563452 0.289081 0.0 
0.799665 -0.0519865 0.0 
0.441133 -0.157026 0.0 
0.751812 -0.243093 0.0 
0.436809 0.602459 0.0 
0.729912 0.0114333 0.0 
0.850882 -0.547969 0.0 
0.698549 0.00958828 0.0 
0.85526 -0.411593 0.0 
0.636475 0.180932 0.0 
0.902507 -0.627904 0.0 
0.853709 -0.482119 0.0 
0.768951 -0.00716233 0.0 
1.2334 -0.26194 0.0 
0.797482 -0.00136958 0.0 
1.05586 -0.154536 0.0 
1.27124 -0.517165 0.0 
0.811481 -0.418554 0.0 
0.962315 0 0.0 
0.783242 -0.336023 0.0 
0.841253 0.0582267 0.0 
0.935557 -0.562542 0.0 
0.724351 0.112472 0.0 
0.749975 0.0768737 0.0 
1.01089 -0.368936 0.0 
0.926836 -0.579445 0.0 
0.713908 -0.0612379 0.0 
0.673404 0.040398 0.0 
0.934522 0.100428 0.0 
0.648315 -0.58578 0.0 
0.96552 -0.543478 0.0 
0.589369 -0.0039869 0.0 
1.03459 -0.119407 0.0 
0.0354847 0.364462 0.0 
0.691834 -0.115837 0.0 
0.411678 0.0726646 0.0 
0.86917 -0.215372 0.0 
0.388072 0.14323 0.0 
0.791448 -0.412978 0.0 
0.580326 0.704539 0.0 
0.366387 0.205507 0.0 
0.932716 -0.661863 0.0 
0.923739 -0.398099 0.0 
0.904857 -0.340995 0.0 
1.43099 -0.512303 0.0 
0.724733 -0.162773 0.0 
0.764789 -0.352855 0.0 
0.85934 -0.479614 0.0 
0.16704 0.214397 0.0 
1.10391 -0.448415 0.0 
0.581381 -0.6682 0.0 
1.33473 -0.611517 0.0 
1.22215 -0.318451 0.0 
1.20436 -0.0519228 0.0 
1.37644 -0.245131 0.0 
0.687903 0.484144 0.0 
0.375253 0.374714 0.0 
-0.0330946 0.132261 0.0 
1.12357 -0.352385 0.0 
0.459621 0.336196 0.0 
0.419826 0.583874 0.0 
0.135144 0.00305855 0.0 
0.482003 -0.282601 0.0 
0.961156 -0.610437 0.0 
0.963876 -0.728085 0.0 
1.21264 -0.681015 0.0 
0.469577 0.133435 0.0 
0.799788 -0.390908 0.0 
1.49582 -0.157587 0.0 
1.15301 -0.483426 0.0 
1.10598 0 0.0 
0.852174 -0.680018 0.0 
0.462363 0.542797 0.0 
0.901476 -0.50264 0.0 
0.587787 -0.254385 0.0 
0.422169 -0.399644 0.0 
0.771717 -0.760196 0.0 
0.855281 -0.272795 0.0 
0.416067 0.481976 0.0 
0.821572 -0.115935 0.0 
0.531053 0.751431 0.0 
1.1656 0.0900197 0.0 
0.46856 -0.52194 0.0 
0.391438 0.174233 0.0 
1.60648 -0.156289 0.0 
0.840045 -0.0497013 0.0 
0.358462 0.105937 0.0 
0.520647 0.224889 0.0 
0.377462 -0.0796249 0.0 
1.26753 -0.08835 0.0 
0.764919 -0.11003 0.0 
0.390666 -0.156283 0.0 
1.09825 -0.736278 0.0 
0.354384 0.197921 0.0 
0.97004 -0.788231 0.0 
0.363462 0.190612 0.0 
1.10121 -0.754256 0.0 
0.37882 0.258917 0.0 
0.76662 -0.566985 0.0 
0.354339 0.124852 0.0 
0.397092 0.370849 0.0 
-0.0441367 0.243391 0.0 
0.362509 0.266657 0.0 
0.360297 0.0315475 0.0 
0.347688 -0.0554576 0.0 
0.352619 0.0375092 0.0 
1.25572 -0.167439 0.0 
0.348736 0.11454 0.0 
0.346713 0.0332911 0.0 
0.370286 0.107136 0.0 
0.787861 -0.192359 0.0 
0.942683 -0.59786 0.0 
0.896543 -0.574305 0.0 
0.905817 -0.786801 0.0 
0.383589 -0.478807 0.0 
0.623327 0.627551 0.0 
0.972615 -0.250951 0.0 
0.799803 -0.720325 0.0 
0.427345 0.620794 0.0 
0.688617 -0.18918 0.0 
1.31958 -0.259321 0.0 
0.548133 0.66261 0.0 
0.866491 -0.756616 0.0 
0.747511 -0.755694 0.0 
0.373115 0.324295 0.0 
1.07698 -0.6679 0.0 
0.403477 0.332064 0.0 
0.588175 0.649247 0.0 
0.40652 -0.230566 0.0 
0.998706 -0.597097 0.0 
0.890309 -0.711936 0.0 
1.01766 -0.445072 0.0 
0.525636 -0.0987315 0.0 
1.00348 -0.76238 0.0 
0.599598 0.635895 0.0 
0.637983 -0.396708 0.0 
0.945129 -0.223791 0.0 
0.425431 0.249882 0.0 
1.13468 -0.0399819 0.0 
0.382293 0.0221354 0.0 
0.513997 -0.499969 0.0 
1.24337 0 0.0 
1.24959 0.0169543 0.0 
0.537903 -0.0456909 0.0 
0.279902 -0.24752 0.0 
0.234351 -0.247564 0.0 
1.13642 0.174725 0.0 
0.308977 -0.261862 0.0 
0.922198 0.091471 0.0 
0.544193 -0.172012 0.0 
0.313083 -0.0794335 0.0 
0.32455 -0.0422857 0.0 
0.307837 -0.270441 0.0 
0.286841 -0.120637 0.0 