<VTKFile type="UnstructuredGrid" version="0.1" byte_order="LittleEndian">
  <UnstructuredGrid>
    <Piece NumberOfPoints="19191" NumberOfCells="38294">
      <Points>
        <DataArray type = "Float64" NumberOfComponents="3" format="ascii">
4.29362 3.5522 0.0 
4.6919 4.55355 0.0 
4.69903 4.55626 0.0 
4.70232 4.55996 0.0 
4.38361 3.59722 0.0 
4.70297 4.57005 0.0 
4.6818 4.54948 0.0 
4.99089 3.8389 0.0 
4.84452 3.71912 0.0 
4.46077 4.03279 0.0 
4.92222 3.68369 0.0 
4.42181 4.03652 0.0 
4.6126 4.07879 0.0 
5.14455 4.21902 0.0 
4.29616 3.59221 0.0 
5.03066 4.42645 0.0 
5.09505 4.26595 0.0 
4.40569 3.55537 0.0 
4.69304 4.56728 0.0 
4.69472 4.57629 0.0 
4.74226 3.505 0.0 
5.00748 3.80014 0.0 
4.61085 3.52475 0.0 
4.76114 3.73824 0.0 
4.96393 3.77293 0.0 
4.87811 3.61736 0.0 
4.52301 4.08884 0.0 
4.93106 3.65691 0.0 
4.98649 3.73816 0.0 
4.70593 4.26928 0.0 
4.94254 3.67393 0.0 
4.70952 3.44365 0.0 
4.92682 3.64959 0.0 
4.92123 3.63887 0.0 
4.79867 3.49963 0.0 
4.9168 3.63058 0.0 
4.84666 3.52896 0.0 
4.97453 3.72499 0.0 
4.89831 3.59335 0.0 
5.00139 3.75902 0.0 
4.90552 3.60582 0.0 
4.78396 3.49205 0.0 
4.62964 3.43925 0.0 
4.77652 3.86263 0.0 
4.71637 4.29468 0.0 
4.69832 4.54717 0.0 
4.9333 4.5016 0.0 
4.75087 3.57636 0.0 
4.75561 4.45517 0.0 
4.71057 4.46989 0.0 
4.77295 3.59846 0.0 
4.69643 4.42072 0.0 
4.62809 3.44497 0.0 
4.77781 4.48953 0.0 
4.69711 3.4843 0.0 
4.70265 4.4062 0.0 
4.69939 4.44973 0.0 
4.70059 4.38527 0.0 
4.70367 4.47418 0.0 
4.73345 4.41611 0.0 
4.70249 4.43002 0.0 
4.73318 4.39123 0.0 
4.71972 4.44516 0.0 
4.69496 4.39556 0.0 
4.72001 4.42289 0.0 
4.73811 4.50737 0.0 
4.41832 4.01365 0.0 
4.71334 4.45211 0.0 
4.72418 4.4042 0.0 
4.66809 3.45688 0.0 
4.71932 4.53371 0.0 
5.02918 4.09922 0.0 
4.77429 4.19888 0.0 
4.79792 3.6059 0.0 
4.28128 3.62888 0.0 
4.43417 3.52455 0.0 
4.7047 4.36805 0.0 
4.90902 3.65274 0.0 
4.2502 3.71512 0.0 
4.92369 3.70711 0.0 
4.47649 3.7067 0.0 
5.06444 3.88547 0.0 
4.3701 3.45655 0.0 
4.2682 3.65944 0.0 
4.23041 3.72307 0.0 
4.48147 3.44323 0.0 
4.67683 4.53831 0.0 
4.62889 3.51661 0.0 
4.74958 4.48751 0.0 
4.41352 3.58955 0.0 
4.70809 4.39052 0.0 
4.51221 3.50133 0.0 
4.72164 4.464 0.0 
4.948 4.12228 0.0 
4.72688 4.4531 0.0 
4.81075 3.76133 0.0 
4.71242 4.38893 0.0 
4.93033 3.74577 0.0 
4.7093 4.41156 0.0 
4.52422 3.99836 0.0 
4.65227 3.46422 0.0 
4.71664 4.38714 0.0 
5.04425 4.03091 0.0 
4.70944 4.37199 0.0 
4.7226 4.38362 0.0 
4.39045 3.47519 0.0 
4.93085 3.72813 0.0 
4.50191 4.03693 0.0 
4.7265 4.43134 0.0 
4.88342 4.43008 0.0 
4.71637 4.46265 0.0 
4.8898 3.62697 0.0 
4.74954 3.7768 0.0 
4.65079 3.45385 0.0 
4.28456 3.57594 0.0 
4.48399 3.67293 0.0 
4.79297 4.06102 0.0 
4.96614 3.82842 0.0 
4.72346 4.36675 0.0 
4.72386 3.96354 0.0 
4.69453 4.24743 0.0 
4.38509 3.43527 0.0 
4.73178 4.26176 0.0 
4.38359 3.4225 0.0 
4.93819 3.68192 0.0 
4.36411 3.44821 0.0 
4.7323 3.51911 0.0 
4.69926 4.53245 0.0 
4.7157 4.36805 0.0 
4.70704 4.44813 0.0 
4.76914 3.54429 0.0 
4.91264 3.67135 0.0 
4.70695 4.42517 0.0 
4.39441 3.49677 0.0 
4.72591 4.50817 0.0 
4.72144 3.56946 0.0 
4.87062 3.6369 0.0 
5.06677 3.94117 0.0 
4.967 3.79382 0.0 
4.44605 3.44491 0.0 
4.83924 3.65991 0.0 
4.54779 3.40854 0.0 
4.71327 4.42986 0.0 
4.71554 4.40605 0.0 
4.95808 3.74608 0.0 
4.73393 3.83543 0.0 
4.34851 3.46507 0.0 
5.02672 3.82675 0.0 
4.3601 3.56242 0.0 
4.76338 4.42804 0.0 
5.11738 4.06283 0.0 
4.71715 3.73373 0.0 
4.42611 3.42559 0.0 
4.4232 3.56941 0.0 
4.93973 3.71264 0.0 
4.72408 4.28289 0.0 
4.3696 3.61579 0.0 
4.3893 3.42791 0.0 
4.42888 3.47005 0.0 
4.70472 4.53692 0.0 
4.56082 3.43119 0.0 
4.64438 3.54149 0.0 
4.97413 3.91192 0.0 
4.32074 3.60573 0.0 
4.30997 3.54144 0.0 
4.92306 4.44363 0.0 
4.93514 3.67372 0.0 
4.81767 3.52437 0.0 
4.90829 3.62441 0.0 
4.92463 3.64955 0.0 
4.72383 3.45737 0.0 
4.92446 3.6479 0.0 
4.87045 3.55865 0.0 
4.91552 3.62981 0.0 
4.89007 3.59023 0.0 
4.92544 3.65439 0.0 
4.79191 3.51408 0.0 
4.95041 3.69418 0.0 
4.79104 3.51018 0.0 
4.82927 3.53869 0.0 
4.84786 3.55512 0.0 
4.69767 3.45273 0.0 
4.86178 3.5474 0.0 
4.81541 3.51782 0.0 
4.91047 3.61657 0.0 
4.91921 3.64236 0.0 
4.73581 3.47598 0.0 
4.83743 4.48843 0.0 
4.76185 3.4947 0.0 
4.81153 3.51066 0.0 
4.69391 3.83249 0.0 
4.93104 3.66936 0.0 
4.89501 3.59018 0.0 
4.77567 3.50761 0.0 
4.89651 3.59385 0.0 
4.91156 3.63106 0.0 
4.81778 3.51267 0.0 
4.84839 3.55153 0.0 
4.58185 3.43589 0.0 
4.68591 4.22229 0.0 
4.85627 3.54993 0.0 
4.66357 3.42466 0.0 
4.87568 3.56477 0.0 
4.68315 3.4357 0.0 
4.90464 3.60971 0.0 
4.73779 3.47348 0.0 
4.81103 3.52675 0.0 
4.92123 3.64453 0.0 
4.784 3.49995 0.0 
4.93601 3.67148 0.0 
4.90202 3.61278 0.0 
4.90485 3.61198 0.0 
4.92834 3.66096 0.0 
4.9282 3.66334 0.0 
4.91251 3.61945 0.0 
4.76327 3.49218 0.0 
4.85976 3.56685 0.0 
4.85318 3.54027 0.0 
4.74411 3.47348 0.0 
4.8027 3.5239 0.0 
4.82305 3.53705 0.0 
4.63092 3.41271 0.0 
4.83054 3.53518 0.0 
4.92781 3.6581 0.0 
4.71966 4.49601 0.0 
4.9285 3.65626 0.0 
4.92263 3.65088 0.0 
4.90421 3.61766 0.0 
4.79873 3.52521 0.0 
4.91637 3.63551 0.0 
4.93014 3.66122 0.0 
4.76083 3.47996 0.0 
4.93341 3.66945 0.0 
4.9214 3.64641 0.0 
4.70201 3.44907 0.0 
4.91913 3.64104 0.0 
4.85686 3.68111 0.0 
4.91859 3.63375 0.0 
4.75488 3.47252 0.0 
4.80766 3.52034 0.0 
4.93213 3.66304 0.0 
4.92833 3.65348 0.0 
4.9273 3.65581 0.0 
4.9105 3.62767 0.0 
4.91238 3.62297 0.0 
4.92352 3.65024 0.0 
4.84408 3.53455 0.0 
4.90072 3.61504 0.0 
4.86449 3.55244 0.0 
4.87257 3.5676 0.0 
4.90555 3.61758 0.0 
4.31729 3.58368 0.0 
4.73573 3.4652 0.0 
4.92588 3.65717 0.0 
4.90799 3.61769 0.0 
4.84766 3.54389 0.0 
4.7608 3.49929 0.0 
4.93965 3.67784 0.0 
4.75551 3.48269 0.0 
4.9107 3.61893 0.0 
4.93222 3.66648 0.0 
4.93716 3.66726 0.0 
4.76978 3.50078 0.0 
4.9475 3.68697 0.0 
4.90128 3.60516 0.0 
4.90519 3.62138 0.0 
4.88938 3.59236 0.0 
4.79256 3.51782 0.0 
4.91443 3.63524 0.0 
4.90801 3.62671 0.0 
4.7999 3.51758 0.0 
4.9251 3.6471 0.0 
4.92089 3.64102 0.0 
4.91255 3.6304 0.0 
4.89393 3.59919 0.0 
4.91789 3.63666 0.0 
4.93028 3.66373 0.0 
4.90307 3.6038 0.0 
4.8757 3.57946 0.0 
4.79594 3.50706 0.0 
4.91845 3.63877 0.0 
4.88661 3.58716 0.0 
4.83874 3.54489 0.0 
4.91454 3.62709 0.0 
4.93042 3.65865 0.0 
4.58329 3.50831 0.0 
4.71174 3.44988 0.0 
4.91747 3.63478 0.0 
4.81048 3.53327 0.0 
4.74904 4.52517 0.0 
4.68854 3.44497 0.0 
4.89744 3.60322 0.0 
4.96448 3.71505 0.0 
4.90758 3.62155 0.0 
4.9142 3.63317 0.0 
4.73417 3.46903 0.0 
4.78203 3.50912 0.0 
4.80611 3.50924 0.0 
4.8827 3.5763 0.0 
4.91374 3.62785 0.0 
4.75342 3.48835 0.0 
4.92548 3.65256 0.0 
4.89649 3.60532 0.0 
4.87068 3.56245 0.0 
4.74385 3.46833 0.0 
4.78344 3.50281 0.0 
4.8128 4.42841 0.0 
4.7198 3.45102 0.0 
4.78758 4.42929 0.0 
4.93334 3.66229 0.0 
4.75267 3.47562 0.0 
4.79525 3.51048 0.0 
4.93989 3.68119 0.0 
4.69844 3.4416 0.0 
4.77283 3.94764 0.0 
4.9076 3.61369 0.0 
4.74658 3.47899 0.0 
4.94259 3.68707 0.0 
4.85726 3.56035 0.0 
4.92276 3.64599 0.0 
4.89018 3.58212 0.0 
4.91014 3.62473 0.0 
4.73578 3.48108 0.0 
4.89669 3.59944 0.0 
4.79853 3.82176 0.0 
4.86836 3.55365 0.0 
4.66007 3.42857 0.0 
4.91948 3.639 0.0 
4.46915 4.05179 0.0 
4.90194 3.6102 0.0 
4.89302 3.59018 0.0 
4.90126 3.59933 0.0 
4.86491 3.56406 0.0 
4.83553 3.54754 0.0 
4.31322 3.78265 0.0 
4.91989 3.63662 0.0 
4.71029 4.54747 0.0 
4.91716 3.63298 0.0 
4.92161 3.64094 0.0 
4.77418 3.50103 0.0 
4.91617 3.63331 0.0 
4.78742 3.51679 0.0 
4.8456 3.53202 0.0 
4.70375 4.514 0.0 
4.77231 3.4932 0.0 
4.8389 3.52409 0.0 
4.78632 3.49781 0.0 
4.78264 3.50576 0.0 
4.7242 3.4646 0.0 
4.91047 3.62199 0.0 
4.75439 3.48541 0.0 
4.92636 3.65215 0.0 
4.76014 3.4834 0.0 
4.88277 3.5795 0.0 
4.75253 3.49186 0.0 
4.7144 4.55471 0.0 
4.78268 3.51602 0.0 
4.79193 3.72788 0.0 
4.7732 3.49732 0.0 
4.8543 3.55295 0.0 
4.84287 3.53715 0.0 
4.87498 3.57409 0.0 
4.69042 3.44179 0.0 
4.9083 3.61646 0.0 
4.88717 3.58141 0.0 
4.66137 4.19578 0.0 
4.95805 3.70255 0.0 
4.90567 3.61567 0.0 
4.71072 3.45691 0.0 
4.94923 3.79814 0.0 
4.88842 3.59375 0.0 
4.88509 3.58383 0.0 
4.86382 3.55489 0.0 
4.93964 3.67403 0.0 
4.32113 3.4858 0.0 
4.72618 3.46974 0.0 
4.93042 3.66627 0.0 
4.87679 3.56342 0.0 
4.91254 3.62496 0.0 
4.88371 3.58752 0.0 
4.88054 3.58125 0.0 
4.91863 3.63617 0.0 
4.95247 3.69137 0.0 
4.95521 3.705 0.0 
4.83052 3.51877 0.0 
4.86273 3.55822 0.0 
4.90777 3.61244 0.0 
4.91241 3.62727 0.0 
4.74462 3.48142 0.0 
4.71684 4.51096 0.0 
4.71308 3.46203 0.0 
4.71687 3.45658 0.0 
4.83637 3.52612 0.0 
4.9158 3.63873 0.0 
4.85247 3.53569 0.0 
4.76313 3.48902 0.0 
4.32447 3.53159 0.0 
4.87933 3.57067 0.0 
4.91448 3.62526 0.0 
4.85831 3.54766 0.0 
4.87847 3.57363 0.0 
4.87456 3.55933 0.0 
4.88127 3.56878 0.0 
4.87637 4.48891 0.0 
4.92593 3.64992 0.0 
4.83381 3.52866 0.0 
4.91045 3.62012 0.0 
4.91698 3.63791 0.0 
4.76584 3.48029 0.0 
4.89383 3.59349 0.0 
4.88602 3.57503 0.0 
4.93459 3.66666 0.0 
4.91344 3.62249 0.0 
4.88914 3.58662 0.0 
4.80486 3.51553 0.0 
4.94356 3.68134 0.0 
4.91988 3.63821 0.0 
4.67536 3.43745 0.0 
4.90485 3.60802 0.0 
4.8978 3.59764 0.0 
4.92064 3.64206 0.0 
5.04466 4.31153 0.0 
4.94667 3.6817 0.0 
4.81843 3.52876 0.0 
4.92359 3.64392 0.0 
4.89356 3.59633 0.0 
4.79188 3.49862 0.0 
4.77512 3.48853 0.0 
4.83785 3.53643 0.0 
4.88624 3.57767 0.0 
4.91011 3.62292 0.0 
4.90822 3.6203 0.0 
4.73261 3.45914 0.0 
4.90817 3.61149 0.0 
4.94442 3.68626 0.0 
4.90073 3.60208 0.0 
4.71685 3.51463 0.0 
4.82269 3.52075 0.0 
4.91158 3.62493 0.0 
4.92007 3.64564 0.0 
4.47168 3.4869 0.0 
4.97014 4.43125 0.0 
4.75654 3.69393 0.0 
4.48407 3.6032 0.0 
4.718 4.34504 0.0 
4.79856 3.50499 0.0 
4.90989 3.63118 0.0 
4.86709 3.5706 0.0 
4.3471 3.79501 0.0 
4.89392 3.99571 0.0 
4.70262 4.08023 0.0 
4.9098 4.37285 0.0 
4.46894 4.06162 0.0 
4.69653 4.51523 0.0 
4.82482 3.54352 0.0 
4.91242 3.62874 0.0 
4.36164 3.55105 0.0 
4.53097 3.71139 0.0 
4.91858 3.63487 0.0 
4.59847 3.73874 0.0 
4.71838 3.4841 0.0 
4.71696 4.35714 0.0 
4.72908 4.34527 0.0 
4.34363 3.55642 0.0 
4.91536 3.63081 0.0 
4.71792 4.32662 0.0 
4.91475 3.6323 0.0 
4.83688 3.59619 0.0 
4.83161 3.57603 0.0 
[...]
<PointData>
  <DataArray type = "Float64" Name="Vitesse" NumberOfComponents="3" format="ascii">
0.0011344 2.29119e-05 0.0 
4.16699e-05 -0.00011282 0.0 
0.0127252 -0.0280838 0.0 
0.0431892 -0.0973321 0.0 
0.00421688 -0.0024799 0.0 
0.0900412 -0.196227 0.0 
6.48973e-14 -3.27687e-13 0.0 
0.248522 -0.228187 0.0 
0.109816 0.0200862 0.0 
-0.016276 -0.0239484 0.0 
0.129079 0.049999 0.0 
-0.0110246 -0.0141386 0.0 
-0.0416845 -0.0872493 0.0 
0.00647133 -0.553029 0.0 
0.00123898 -0.00068132 0.0 
0.0275092 -0.425844 0.0 
0.0281045 -0.508133 0.0 
0.00442955 -0.000736187 0.0 
3.13315e-06 -9.47494e-06 0.0 
0.040591 -0.088159 0.0 
0.000545881 0.00380836 0.0 
0.2319 -0.367899 0.0 
0.00981535 0.00415336 0.0 
0.077137 -0.00519226 0.0 
0.249421 -0.0995361 0.0 
0.0204478 0.0733417 0.0 
-0.0397754 -0.0388817 0.0 
0.0480348 -0.0325359 0.0 
0.151935 -0.323202 0.0 
-0.0823168 -0.212642 0.0 
0.0727666 -0.0783314 0.0 
-0.000121989 0.000538858 0.0 
0.0364326 -0.0209217 0.0 
0.0177078 -0.0103675 0.0 
-0.00743149 -0.000190285 0.0 
0.0017413 -0.00194378 0.0 
-0.0319834 0.0230623 0.0 
0.142342 -0.238225 0.0 
-0.0314618 0.0119806 0.0 
0.172787 -0.409501 0.0 
-0.0341237 0.0036113 0.0 
-0.00446114 0.00029885 0.0 
0.000875655 0.00312685 0.0 
0.0877008 -0.0649161 0.0 
-0.0744919 -0.230455 0.0 
2.54722e-05 -0.000101839 0.0 
0.0714155 -0.367754 0.0 
0.0153963 0.0138369 0.0 
0.0230921 -0.322618 0.0 
9.58597e-06 -0.000139752 0.0 
0.0216387 0.0202809 0.0 
1.74043e-15 -3.32506e-13 0.0 
0.00115262 0.00328735 0.0 
0.0545461 -0.325418 0.0 
0.00239508 0.00354959 0.0 
-1.10882e-13 -2.17605e-12 0.0 
4.76824e-14 -2.22701e-12 0.0 
-2.99596e-13 -2.16337e-12 0.0 
2.93801e-13 -4.26349e-12 0.0 
-0.00132778 -0.282334 0.0 
2.62737e-14 -3.0454e-12 0.0 
-0.016409 -0.299983 0.0 
0.00120199 -0.04038 0.0 
-2.07695e-14 -2.76601e-13 0.0 
0.00213932 -0.0718736 0.0 
0.0614472 -0.338576 0.0 
-0.00879616 -0.0160508 0.0 
1.73085e-13 -5.4435e-12 0.0 
-0.00322685 -0.120867 0.0 
0.00123181 0.00336034 0.0 
0.0623054 -0.228522 0.0 
0.102116 -0.477606 0.0 
-0.0374733 -0.199211 0.0 
0.022444 0.0273133 0.0 
0.00131609 -0.00073172 0.0 
0.00495401 0.000936764 0.0 
-0.000140039 -0.000669793 0.0 
0.0743894 0.0694858 0.0 
0.00162194 -0.00116435 0.0 
0.160059 0.0416953 0.0 
0.013655 -0.0140512 0.0 
0.175398 -0.68363 0.0 
0.000626581 0.001635 0.0 
0.00159872 -0.000826294 0.0 
0.00133585 -0.000568576 0.0 
0.0012108 0.00262908 0.0 
-6.90756e-25 2.98122e-24 0.0 
0.00854763 0.00445735 0.0 
0.0427552 -0.335036 0.0 
0.00573342 -0.00262294 0.0 
-4.53445e-13 -4.50155e-12 0.0 
0.00592984 0.0025944 0.0 
0.00663994 -0.098242 0.0 
0.0446701 -0.253278 0.0 
0.0111629 -0.221533 0.0 
0.106346 -0.0110935 0.0 
-2.14238e-07 -1.02468e-06 0.0 
0.201407 0.00464093 0.0 
-8.73574e-14 -4.41135e-12 0.0 
-0.0111652 -0.0454705 0.0 
0.00225096 0.00373549 0.0 
-0.00160314 -0.0138632 0.0 
0.131622 -0.522464 0.0 
-0.000579733 -0.00277662 0.0 
-0.0152128 -0.133899 0.0 
0.00161103 0.0018038 0.0 
0.187377 0.0206212 0.0 
-0.022098 -0.0360498 0.0 
0.00628635 -0.210962 0.0 
0.0477554 -0.326956 0.0 
0.000189503 -0.00276272 0.0 
0.0304444 0.0799585 0.0 
0.0782309 -0.021537 0.0 
0.00154538 0.00361169 0.0 
0.00104133 -0.000152265 0.0 
0.0141773 -0.0106445 0.0 
0.0214055 -0.153122 0.0 
0.244986 -0.143318 0.0 
-0.0324914 -0.21482 0.0 
0.0372771 -0.096591 0.0 
-0.0891703 -0.197148 0.0 
0.00057669 0.00264428 0.0 
-0.0748232 -0.230143 0.0 
9.41409e-06 4.72548e-05 0.0 
0.109329 -0.0224951 0.0 
0.000378411 0.00150879 0.0 
0.00370113 0.00579407 0.0 
4.44845e-06 -1.77852e-05 0.0 
-0.0133111 -0.0639893 0.0 
8.48114e-14 -4.578e-12 0.0 
0.00260883 0.010537 0.0 
0.108283 0.0673475 0.0 
4.46903e-14 -4.05566e-12 0.0 
0.00246684 0.00150279 0.0 
0.0504941 -0.289894 0.0 
0.0158777 0.0103436 0.0 
0.0466967 0.0694398 0.0 
0.164308 -0.645527 0.0 
0.257928 -0.12107 0.0 
0.00130468 0.00305614 0.0 
0.0629086 0.0436252 0.0 
1.06932e-55 2.75559e-56 0.0 
7.60121e-14 -5.23636e-12 0.0 
-1.40383e-13 -5.12156e-12 0.0 
0.217985 -0.069879 0.0 
0.0713139 -0.0457648 0.0 
0.000747055 0.00143249 0.0 
0.214474 -0.469645 0.0 
0.00276383 -0.000538323 0.0 
0.010354 -0.309846 0.0 
0.0796989 -0.664161 0.0 
0.0619156 -0.00878391 0.0 
0.000481915 0.0025934 0.0 
0.00571194 -0.00149623 0.0 
0.169939 0.00465119 0.0 
-0.0785447 -0.246795 0.0 
0.00387459 -0.00312364 0.0 
0.000322597 0.00161312 0.0 
0.00207347 0.00270493 0.0 
0.000882798 -0.00352949 0.0 
0.00142864 0.00373685 0.0 
0.0123454 0.00514125 0.0 
0.180008 -0.208841 0.0 
0.00168923 -0.00136559 0.0 
0.00139364 6.2604e-05 0.0 
0.0585564 -0.368168 0.0 
0.0924856 -0.0191604 0.0 
-0.0164811 0.00841258 0.0 
0.00300333 0.0366729 0.0 
0.0426458 -0.00463936 0.0 
-0.000529372 0.00180696 0.0 
0.0379503 -0.00801956 0.0 
-0.0330207 0.0353392 0.0 
0.00276351 0.00519092 0.0 
-0.0187638 0.040838 0.0 
0.0553675 0.00233024 0.0 
-0.00739926 0.00336816 0.0 
0.114022 -0.0880924 0.0 
-0.00708837 0.00247757 0.0 
-0.0187084 0.0183614 0.0 
-0.020077 0.0335994 0.0 
-1.52429e-05 0.0019266 0.0 
-0.0263373 0.0340912 0.0 
-0.0156648 0.00463822 0.0 
-0.026013 0.00241173 0.0 
0.0347231 0.0136295 0.0 
-0.000866883 0.0015437 0.0 
0.0636229 -0.315343 0.0 
-0.00242983 0.00162612 0.0 
-0.0132242 0.00184565 0.0 
0.056184 -0.0431475 0.0 
0.088255 -0.000849999 0.0 
-0.0281059 0.0216898 0.0 
-0.00400634 0.00282108 0.0 
-0.0256191 0.0231391 0.0 
0.0170048 0.0338183 0.0 
-0.0163864 0.00298477 0.0 
-0.0214831 0.0323963 0.0 
0.00152576 0.00362042 0.0 
-0.0930295 -0.18109 0.0 
-0.0244871 0.0349907 0.0 
-2.17795e-05 0.000446893 0.0 
-0.0375767 0.0353765 0.0 
-5.35713e-07 0.00127328 0.0 
-0.0249308 0.0201737 0.0 
-0.000946769 0.00129847 0.0 
-0.0133368 0.00837957 0.0 
0.0362101 0.00570511 0.0 
-0.00532299 0.00107066 0.0 
0.0833195 -0.03109 0.0 
-0.01312 0.0407449 0.0 
-0.0214802 0.0250018 0.0 
0.0685112 -0.00144601 0.0 
0.0761013 0.00484828 0.0 
-0.0238037 -0.00381681 0.0 
-0.00265096 0.00129389 0.0 
-0.020157 0.0445208 0.0 
-0.02606 0.031532 0.0 
-0.00124508 0.000991268 0.0 
-0.0104352 0.0065206 0.0 
-0.0165495 0.0153531 0.0 
-4.11316e-06 6.98207e-05 0.0 
-0.0202007 0.0175608 0.0 
0.0608989 -0.00471105 0.0 
0.0204633 -0.154421 0.0 
0.0532348 -0.0145204 0.0 
0.0517275 0.0122484 0.0 
-0.00673855 0.0413734 0.0 
-0.00903825 0.00680453 0.0 
0.0200278 0.0148673 0.0 
0.0648971 -0.0133892 0.0 
-0.00226057 0.000458123 0.0 
0.0832062 -0.0169025 0.0 
0.0414887 0.00933808 0.0 
-0.000172722 0.0010274 0.0 
0.0307968 0.0107649 0.0 
0.0889068 0.0445222 0.0 
0.007716 -0.00586255 0.0 
-0.00155954 0.000369139 0.0 
-0.0124137 0.00546723 0.0 
0.0656452 -0.0235439 0.0 
0.0446564 -0.0209655 0.0 
0.0550055 -0.00694729 0.0 
0.00846035 0.0321102 0.0 
-0.0119393 0.00779892 0.0 
0.047668 0.0048653 0.0 
-0.0261921 0.0248074 0.0 
-0.00592389 0.0504567 0.0 
-0.0279644 0.0352692 0.0 
-0.0307178 0.0437106 0.0 
-0.0100546 0.0349861 0.0 
0.00159476 -0.000833661 0.0 
-0.000752668 0.00115642 0.0 
0.0626629 0.00601932 0.0 
-0.0161084 0.0217096 0.0 
-0.0233314 0.0297939 0.0 
-0.00203036 0.00221666 0.0 
0.0942192 -0.0426556 0.0 
-0.00205252 0.000902807 0.0 
-0.0202761 0.00789405 0.0 
0.0766747 -0.0153507 0.0 
0.0657224 -0.0522236 0.0 
-0.00326435 0.0020512 0.0 
0.10081 -0.0826695 0.0 
-0.0237514 0.0261181 0.0 
0.000681922 0.0451652 0.0 
-0.0149608 0.0460685 0.0 
-0.00752379 0.00430686 0.0 
0.0238709 0.026451 0.0 
0.0107302 0.0431212 0.0 
-0.00971791 0.00428593 0.0 
0.0335353 -0.0151149 0.0 
0.0259578 -0.0015083 0.0 
0.0125996 0.0264899 0.0 
-0.0148145 0.0435551 0.0 
0.0198195 0.00760085 0.0 
0.0726006 -0.00818314 0.0 
-0.0302738 0.01307 0.0 
-0.0185115 0.0538191 0.0 
-0.00797673 0.00145155 0.0 
0.0253014 0.00942809 0.0 
-0.0178752 0.046353 0.0 
-0.0203455 0.0252618 0.0 
-0.00410064 0.00432293 0.0 
0.0557379 -0.0224552 0.0 
0.00759045 0.00377764 0.0 
-0.000370563 0.00155912 0.0 
0.0146369 0.00540273 0.0 
-0.0122284 0.0107922 0.0 
0.0811821 -0.339881 0.0 
-3.88517e-08 0.00224154 0.0 
-0.0176588 0.0385738 0.0 
0.138191 -0.164652 0.0 
-0.00397887 0.0339152 0.0 
0.0177355 0.0230042 0.0 
-0.000821245 0.00129661 0.0 
-0.00518533 0.00280231 0.0 
-0.0112227 0.00157546 0.0 
-0.0323926 0.0400264 0.0 
0.000891352 0.0121804 0.0 
-0.00180176 0.00144576 0.0 
0.0496671 -0.00252272 0.0 
-0.013531 0.0461621 0.0 
-0.0322085 0.0392941 0.0 
-0.00103392 0.000790937 0.0 
-0.00540923 0.0015871 0.0 
0.0258009 -0.30022 0.0 
-0.000299406 0.00140278 0.0 
0.0181852 -0.305053 0.0 
0.0596946 -0.0352125 0.0 
-0.00165687 0.000514054 0.0 
-0.00808163 0.00229151 0.0 
0.10357 -0.0361816 0.0 
-9.95501e-05 0.000473266 0.0 
0.0621167 -0.1036 0.0 
-0.0247407 0.0131493 0.0 
-0.00145424 0.00113993 0.0 
0.113675 -0.042648 0.0 
-0.0225287 0.0398467 0.0 
0.0366848 -0.000991891 0.0 
-0.0341942 0.0253475 0.0 
-0.000347471 0.0271945 0.0 
-0.000734425 0.00177377 0.0 
-0.019737 0.0341751 0.0 
0.10431 -0.045643 0.0 
-0.0305152 0.0332611 0.0 
-0.00011767 0.00213502 0.0 
0.0232667 0.00287343 0.0 
-0.0212557 -0.023756 0.0 
-0.017645 0.0352972 0.0 
-0.0241802 0.0302632 0.0 
-0.0307206 0.0115645 0.0 
-0.0255874 0.0435612 0.0 
-0.0182032 0.0246857 0.0 
0.00425036 -0.00692768 0.0 
0.0139936 -0.00698896 0.0 
0.0333458 -0.0928416 0.0 
0.00925351 0.0025196 0.0 
0.0235892 -0.00703642 0.0 
-0.00391805 0.00183376 0.0 
0.0131413 0.0104123 0.0 
-0.00621808 0.00424103 0.0 
-0.0287078 0.0246039 0.0 
4.40524e-08 -6.42223e-07 0.0 
-0.00361898 0.000967706 0.0 
-0.0300283 0.0155923 0.0 
-0.0054003 0.000651947 0.0 
-0.00530821 0.00213305 0.0 
-0.000693057 0.00154748 0.0 
-0.00990258 0.0178992 0.0 
-0.00196193 0.00114651 0.0 
0.0459896 -0.00998989 0.0 
-0.00238946 0.000749037 0.0 
-0.0261269 0.0454124 0.0 
-0.00156947 0.00189405 0.0 
0.0715072 -0.209082 0.0 
-0.00515781 0.00420885 0.0 
0.0868681 0.00350194 0.0 
-0.00380324 0.00137077 0.0 
-0.0233892 0.0353382 0.0 
-0.0242938 0.0250629 0.0 
-0.0258627 0.0494798 0.0 
-5.79839e-05 0.00140413 0.0 
-0.019825 0.0165215 0.0 
-0.0295578 0.0358238 0.0 
-0.10256 -0.147764 0.0 
0.117682 -0.135747 0.0 
-0.0151012 0.0296874 0.0 
-0.000362144 0.00136423 0.0 
0.240725 -0.0806176 0.0 
-0.0121509 0.050267 0.0 
-0.0214985 0.0454831 0.0 
-0.0276505 0.0368945 0.0 
0.0819208 -0.052995 0.0 
0.00116579 0.000913965 0.0 
-0.000663877 0.00152765 0.0 
0.080216 -0.0033027 0.0 
-0.04031 0.0309513 0.0 
-0.00574284 0.0123523 0.0 
-0.0140259 0.0525131 0.0 
-0.0202663 0.0515101 0.0 
0.0161561 0.00103737 0.0 
0.0998835 -0.114675 0.0 
0.132249 -0.103518 0.0 
-0.0249269 0.00774034 0.0 
-0.0266652 0.039303 0.0 
-0.0281528 0.00839078 0.0 
0.00245461 0.0194701 0.0 
-0.00131094 0.00140482 0.0 
0.0299467 -0.145609 0.0 
-0.00038983 0.00146082 0.0 
-0.000513708 0.00163335 0.0 
-0.0271235 0.0157443 0.0 
0.0316548 0.0261446 0.0 
-0.02892 0.0293024 0.0 
-0.00268759 0.00100692 0.0 
0.00162194 0.0002536 0.0 
-0.0372916 0.038798 0.0 
-0.0103823 -0.000546998 0.0 
-0.0251606 0.0343968 0.0 
-0.0309329 0.0446346 0.0 
-0.0376675 0.0296258 0.0 
-0.0438204 0.0293828 0.0 
0.0698237 -0.331527 0.0 
0.0401393 -0.0131048 0.0 
-0.0240363 0.0159898 0.0 
-0.0156515 0.012889 0.0 
0.026339 0.0170177 0.0 
-0.00243163 0.000352096 0.0 
-0.0207412 0.0336837 0.0 
-0.0418985 0.0268698 0.0 
0.0711468 -0.0327597 0.0 
-0.0167613 -0.00121186 0.0 
-0.0223998 0.0383763 0.0 
-0.0113625 0.00372589 0.0 
0.094551 -0.0648661 0.0 
0.0194534 -0.00224924 0.0 
3.4989e-05 0.00302935 0.0 
-0.0284827 0.0142031 0.0 
-0.0240169 0.0254919 0.0 
0.0300425 0.00318077 0.0 
0.039355 -0.474507 0.0 
0.0865031 -0.0907874 0.0 
-0.0164024 0.0103524 0.0 
0.0276086 -0.0130989 0.0 
-0.0173606 0.0395637 0.0 
-0.00641756 0.000443227 0.0 
-0.00354838 0.000445849 0.0 
-0.0228198 0.0217554 0.0 
-0.0362891 0.0320654 0.0 
-0.00602913 0.0227612 0.0 
-0.00936825 0.0273942 0.0 
-0.000501476 0.00170778 0.0 
-0.0315477 0.00296755 0.0 
0.107102 -0.0587435 0.0 
-0.0262176 0.0217442 0.0 
0.00465127 0.00546282 0.0 
-0.0195107 0.00703556 0.0 
-0.0032509 0.0187659 0.0 
0.0424208 0.0160119 0.0 
0.00406241 0.00234052 0.0 
0.048222 -0.407271 0.0 
0.0621564 0.00781063 0.0 
0.0116436 -0.0036808 0.0 
-0.0232454 -0.128098 0.0 
-0.00842683 0.000846772 0.0 
0.0207549 0.0427875 0.0 
-0.0221395 0.0488158 0.0 
0.00533528 -0.0099989 0.0 
0.0885861 -0.172627 0.0 
-0.0181818 -0.128327 0.0 
0.0351369 -0.338623 0.0 
-0.0225316 -0.0197033 0.0 
5.74623e-13 -3.39574e-12 0.0 
-0.0154097 0.0186592 0.0 
0.00740416 0.0231946 0.0 
0.00267963 -0.000174828 0.0 
0.0201477 -0.0154888 0.0 
0.0117306 -0.00243194 0.0 
0.031997 -0.018225 0.0 
0.000899441 0.00272885 0.0 
-0.0205932 -0.124396 0.0 
-0.0474612 -0.282784 0.0 
0.00220266 -0.000200888 0.0 
0.00672291 0.0091513 0.0 
-0.056724 -0.219601 0.0 
0.0135246 0.0173907 0.0 
0.00980464 0.0417653 0.0 
-0.00266291 0.033529 0.0 
0.00272977 0.0021838 0.0 
0.167412 -0.036138 0.0 
0.0208281 0.0771562 0.0 
-0.0648206 -0.251143 0.0 
0.00110264 -0.000271053 0.0 
0.0472202 -0.394771 0.0 
0.0583389 -0.0157884 0.0 
0.0318503 0.0460566 0.0 
-0.0312841 -0.104533 0.0 
0.0442846 -0.0154771 0.0 
0.0172063 -0.00268006 0.0 
-0.0128773 -0.302294 0.0 
-0.0219391 0.027351 0.0 
0.0265347 0.0345016 0.0 
-0.021643 0.00609426 0.0 
0.00120915 -0.000469767 0.0 
0.200759 0.00222456 0.0 
0.00198408 0.00328071 0.0 
0.161954 -0.19767 0.0 
0.00354421 0.00250812 0.0 
0.0541395 -0.0263218 0.0 
0.0320514 -0.00320604 0.0 
0.00747597 0.0540119 0.0 
0.0109205 -0.00605812 0.0 
0.167419 -0.284374 0.0 
0.00287493 0.00347002 0.0 
0.0714321 0.0130319 0.0 
0.218432 -0.19327 0.0 
0.00109369 0.000493591 0.0 
0.00137189 0.0028815 0.0 
-0.0232784 -0.29897 0.0 
0.00962572 -0.00159491 0.0 
0.0518233 0.000739933 0.0 
0.0183103 -0.257198 0.0 
0.00548644 0.0070257 0.0 
0.00186088 0.00292616 0.0 
0.00191567 0.00361185 0.0 
0.0321172 0.0294082 0.0 
-0.0176034 -0.0168056 0.0 
0.00983744 0.0210643 0.0 
0.00115321 -0.000504869 0.0 
0.0893428 -0.103144 0.0 
0.00136441 0.00225727 0.0 
0.0668082 0.0223395 0.0 
0.000176198 0.00255521 0.0 
0.000403535 0.00248052 0.0 
0.00123698 0.00370071 0.0 
0.0118817 0.001812 0.0 
0.112131 0.00303909 0.0 
0.00226035 0.00275409 0.0 
-0.018147 0.0352719 0.0 
0.094364 0.0335062 0.0 
0.161722 0.0279789 0.0 
0.0169408 -0.00922333 0.0 
-0.0285791 0.0267438 0.0 
0.0221599 0.0198908 0.0 
-0.000682583 0.00129718 0.0 
0.00740831 0.015227 0.0 
-0.0104142 0.0516986 0.0 
0.0475397 0.0209254 0.0 
-0.00981969 0.0557818 0.0 
0.0424334 0.00204881 0.0 
0.164135 -0.18561 0.0 
-0.0272571 0.0323388 0.0 
-0.039875 -0.287918 0.0 
-0.0128995 0.0567756 0.0 
-0.00344733 0.000693287 0.0 
0.155712 -0.128513 0.0 
0.0392547 0.0244084 0.0 
0.000278797 0.0561232 0.0 
-0.021241 0.012772 0.0 
-0.00895934 0.0521097 0.0 
0.0312198 0.0197676 0.0 
-0.0338116 -0.269847 0.0 
-0.0036787 0.00340729 0.0 
0.170729 -0.249408 0.0 
-0.013819 0.0114107 0.0 
0.061419 0.015188 0.0 
0.0989154 -0.00783733 0.0 
-0.000509666 0.00169962 0.0 
-0.0118827 0.00306912 0.0 
0.00145388 -0.000674519 0.0 
0.00213447 0.000713185 0.0 
-0.0011219 0.00168366 0.0 
-0.0204793 0.0323806 0.0 
0.030788 -0.00549018 0.0 
-0.0246796 0.0310234 0.0 
0.00343834 0.00292866 0.0 
0.000218649 0.00340522 0.0 
0.12072 0.0101114 0.0 
0.252959 -0.0991691 0.0 
-0.00653978 -0.0314496 0.0 
0.0033302 -0.00462487 0.0 
0.0963275 0.00674003 0.0 
0.098557 -0.0224466 0.0 
0.21376 -0.00837884 0.0 
0.00496768 0.00360521 0.0 
0.00054523 0.00272154 0.0 
0.00111691 0.000661725 0.0 
0.00382677 -0.0647985 0.0 
0.00193374 0.00370779 0.0 
-0.000134233 -0.144622 0.0 
0.00981506 0.00584062 0.0 
0.141876 -0.331579 0.0 
0.00702167 3.73994e-05 0.0 
0.0130938 -0.219458 0.0 
0.00228325 0.0010224 0.0 
0.00516748 0.00305474 0.0 
0.0170725 0.00472816 0.0 
0.011655 0.00342866 0.0 
0.242609 -0.0638922 0.0 
0.162681 0.0409912 0.0 
-0.0777874 -0.0959277 0.0 
0.00121666 0.00326064 0.0 
0.00295699 0.000399928 0.0 
0.0227112 0.0148764 0.0 
0.000947602 0.00142875 0.0 
0.0350804 0.000754827 0.0 
0.00878349 -0.0101053 0.0 
0.00985303 -3.18576e-05 0.0 
0.0217681 0.0108005 0.0 
0.00101705 -0.000179093 0.0 
0.0805178 0.0152621 0.0 
0.113394 -0.0830023 0.0 
0.00410578 0.00210998 0.0 
0.159387 -0.000802314 0.0 
-0.00251166 0.0227544 0.0 
0.00137714 -0.000177864 0.0 
0.0240997 0.00778196 0.0 
0.0016136 0.000827496 0.0 
0.00188311 -0.00105288 0.0 
0.0722625 0.026211 0.0 
0.00197393 0.00370282 0.0 
0.0462704 0.0408492 0.0 
0.0322955 0.0222427 0.0 
0.000782574 0.00308349 0.0 
0.0107275 0.00971798 0.0 
0.00103833 0.0025266 0.0 
-0.0792702 -0.130121 0.0 
0.000832047 0.00243639 0.0 
0.0158177 0.0259488 0.0 
0.0010622 0.00302955 0.0 
0.000995091 0.00315742 0.0 
0.000975266 -1.83977e-05 0.0 
0.122237 -0.0367393 0.0 
0.000402605 0.00313382 0.0 
0.0333909 -0.00908247 0.0 
0.0247547 0.0356542 0.0 
-0.00122378 0.00496164 0.0 
0.00737513 -0.000927168 0.0 
0.0005077 0.00236541 0.0 
0.00265143 0.000200026 0.0 
0.0235973 -0.0100847 0.0 
0.00583325 -0.00653666 0.0 
0.000295187 -0.00430346 0.0 
0.0012148 -0.000704196 0.0 
0.00120943 -9.49574e-05 0.0 
0.0243063 -0.00482362 0.0 
-0.0544255 -0.0455118 0.0 
-0.0112675 0.0373089 0.0 
0.0324201 0.0143045 0.0 
0.190885 -0.109878 0.0 
0.0143984 0.000460731 0.0 
0.259077 -0.142063 0.0 
0.0727534 -0.579624 0.0 
0.0010971 -0.00035134 0.0 
0.0668117 0.034873 0.0 
0.00876405 0.0014673 0.0 
0.135609 0.0568602 0.0 
0.254973 -0.148231 0.0 
0.00950625 -0.00803921 0.0 
0.00130806 0.000356882 0.0 
0.00735239 -0.00555206 0.0 
0.0331427 0.036413 0.0 
-0.0168881 0.0437494 0.0 
0.00136885 0.0002158 0.0 
0.0450277 -0.00618272 0.0 
0.0859837 -0.223888 0.0 
0.00187154 2.0117e-05 0.0 
0.0171735 0.00245087 0.0 
0.0144235 0.0193318 0.0 
0.00134972 -0.000476475 0.0 
0.00134382 -0.000920539 0.0 
0.126034 -0.0368012 0.0 
0.170484 0.0183613 0.0 
0.00356015 -0.0119859 0.0 
0.0164483 -0.00540944 0.0 
0.18072 -0.503605 0.0 
0.00365023 0.000293326 0.0 
0.110344 0.0510171 0.0 
0.00586177 0.00398144 0.0 
0.197898 -0.247583 0.0 
0.00732444 0.000774793 0.0 
0.000598346 0.00753843 0.0 
0.00160512 0.00222104 0.0 
0.00113508 0.000112749 0.0 
0.0275537 -0.228975 0.0 
0.001017 0.00201169 0.0 
0.225797 -0.0609965 0.0 
0.00480903 0.00232449 0.0 
0.0461006 0.0322248 0.0 
-0.0731437 -0.207301 0.0 
0.122875 -0.0140316 0.0 
0.0236229 -1.83687e-05 0.0 
0.00102517 -0.00015878 0.0 
0.0455319 0.0508148 0.0 
0.000863852 0.00246791 0.0 
0.230137 -0.13397 0.0 
-0.00270404 0.00677038 0.0 
0.00177105 0.00358528 0.0 
0.00244491 -0.00161786 0.0 
0.000964493 -4.25422e-05 0.0 
0.118756 0.0681698 0.0 
-0.00109908 0.00793771 0.0 
0.191342 -0.0496228 0.0 
0.000807225 0.00270207 0.0 
0.250497 -0.193956 0.0 
0.000237798 0.00303899 0.0 
0.179347 -0.409234 0.0 
-0.0970509 -0.172285 0.0 
0.00326866 0.00403714 0.0 
-0.00482776 0.0165611 0.0 
0.00804563 -0.00421682 0.0 
0.000766973 0.0028617 0.0 
0.124478 0.0327404 0.0 
0.0125375 -0.00147711 0.0 
0.00670909 0.0129167 0.0 
0.00194378 0.00235451 0.0 
-0.0123308 -0.0147794 0.0 
0.0526043 0.0784966 0.0 
0.145673 -0.806068 0.0 
2.72275e-18 5.17112e-18 0.0 
0.00122855 0.00262043 0.0 
0.000668404 0.00306687 0.0 
0.00114172 0.0013005 0.0 
0.00113947 0.000296865 0.0 
-0.00384735 0.0102286 0.0 
0.00251183 -0.00299831 0.0 
0.00247529 0.00348484 0.0 
-0.033686 -0.0353348 0.0 
3.46045e-13 -2.98879e-12 0.0 
0.000462408 0.00353829 0.0 
-0.0432161 -0.0559493 0.0 
0.254025 -0.247533 0.0 
0.00141473 0.000604109 0.0 
0.0279812 0.0742851 0.0 
-0.000325647 0.0211657 0.0 
0.00938896 0.00242786 0.0 
0.139571 -0.239171 0.0 
0.00120733 -0.000370924 0.0 
0.00105068 -1.94434e-05 0.0 
0.173629 -0.238068 0.0 
0.00773774 0.00501558 0.0 
0.00132786 0.00126934 0.0 
0.0550987 -0.0804309 0.0 
0.0123839 -0.283926 0.0 
0.00634759 -0.0148709 0.0 
0.0122757 -0.0168331 0.0 
0.00122722 0.000748842 0.0 
0.00156787 -0.00124914 0.0 
0.000290744 0.00209897 0.0 
0.206172 -0.397386 0.0 
0.00160707 -0.00116599 0.0 
0.00135386 0.00101224 0.0 
0.163087 -0.535851 0.0 
4.37282e-05 0.000489366 0.0 
0.202181 -0.330263 0.0 
0.0011111 -0.00443123 0.0 
-0.0830442 -0.117846 0.0 
0.0806173 -0.317693 0.0 
0.00287707 0.00246887 0.0 
0.000444992 0.0550197 0.0 
0.00420158 0.00264826 0.0 
0.0664181 -0.133599 0.0 
0.00101378 9.58732e-05 0.0 
0.000161838 -0.00235939 0.0 
-0.0011265 0.0063557 0.0 
0.0497842 0.0299573 0.0 
0.00145862 0.00315975 0.0 
0.000834816 0.00144944 0.0 
0.00116003 0.000404924 0.0 
0.214855 -0.0541529 0.0 