<VTKFile type="UnstructuredGrid" version="0.1" byte_order="LittleEndian">
  <UnstructuredGrid>
    <Piece NumberOfPoints="19152" NumberOfCells="38221">
      <Points>
        <DataArray type = "Float64" NumberOfComponents="3" format="ascii">
4.1966 3.22989 0.0 
4.90356 2.9197 0.0 
4.13104 3.01237 0.0 
4.10283 2.99949 0.0 
4.1798 3.26248 0.0 
4.12875 2.99926 0.0 
4.95936 2.93211 0.0 
4.12949 3.00179 0.0 
4.9046 2.91661 0.0 
3.71624 3.09651 0.0 
5.12266 2.92039 0.0 
3.61134 3.10234 0.0 
4.1308 3.00675 0.0 
3.63635 3.09395 0.0 
4.17079 3.22619 0.0 
4.19133 3.24716 0.0 
4.1717 3.23612 0.0 
4.17055 3.2469 0.0 
4.17913 3.21825 0.0 
4.18013 3.22807 0.0 
4.12055 2.99354 0.0 
5.08169 3.21537 0.0 
4.17949 3.20327 0.0 
4.1877 3.25284 0.0 
4.36334 2.96485 0.0 
4.93891 2.91779 0.0 
4.83814 2.93204 0.0 
4.83078 2.93728 0.0 
4.26777 3.02221 0.0 
4.10493 3.00537 0.0 
4.27488 3.09477 0.0 
5.14818 2.94466 0.0 
4.18597 3.24292 0.0 
5.12546 2.93012 0.0 
4.37212 2.9533 0.0 
4.31083 3.03754 0.0 
4.7957 2.94037 0.0 
4.33366 2.97333 0.0 
4.18692 3.26446 0.0 
5.11877 2.95663 0.0 
4.95326 2.9204 0.0 
4.11116 2.99765 0.0 
4.1145 3.00421 0.0 
4.33205 2.98954 0.0 
4.19758 3.25271 0.0 
4.19052 3.23863 0.0 
4.09693 2.99675 0.0 
4.11922 3.00068 0.0 
4.32341 2.97845 0.0 
4.11363 3.0031 0.0 
4.95413 2.91617 0.0 
4.11458 2.99529 0.0 
4.10497 2.99781 0.0 
4.10643 3.00269 0.0 
4.11904 3.00397 0.0 
5.11454 2.9554 0.0 
4.09623 2.99993 0.0 
5.12362 2.94765 0.0 
4.32974 2.95974 0.0 
4.21169 3.21163 0.0 
5.11205 2.95347 0.0 
4.24841 3.00911 0.0 
5.14671 2.97233 0.0 
4.31241 2.97474 0.0 
5.14307 2.93416 0.0 
4.25174 3.0468 0.0 
4.78401 2.92255 0.0 
4.29666 2.98144 0.0 
4.29981 3.04647 0.0 
4.10931 2.99967 0.0 
4.84526 2.93649 0.0 
4.86679 2.92615 0.0 
4.31735 3.02315 0.0 
4.34445 2.98559 0.0 
4.95658 2.91095 0.0 
5.14019 2.96181 0.0 
4.19023 3.25885 0.0 
4.12076 3.00474 0.0 
4.11097 3.00244 0.0 
4.12397 3.00066 0.0 
4.92733 2.9128 0.0 
4.1123 3.00131 0.0 
4.12808 3.0061 0.0 
4.11077 3.00588 0.0 
4.11525 2.99976 0.0 
4.12134 3.00292 0.0 
4.12601 3.00174 0.0 
4.11605 3.00164 0.0 
4.10209 3.00377 0.0 
4.31713 3.00012 0.0 
4.12037 2.99954 0.0 
4.12775 3.00227 0.0 
4.12619 3.00277 0.0 
4.10912 3.00428 0.0 
4.12327 3.0019 0.0 
4.25405 2.9955 0.0 
4.13238 3.00263 0.0 
4.12478 2.99932 0.0 
5.02485 2.93443 0.0 
4.12164 2.9981 0.0 
4.9411 2.9157 0.0 
4.19654 3.22066 0.0 
4.28336 3.11009 0.0 
4.12327 3.00388 0.0 
4.12448 2.99654 0.0 
5.03482 2.9544 0.0 
4.11703 2.99773 0.0 
4.12036 2.99597 0.0 
4.11751 3.00294 0.0 
4.12044 3.00178 0.0 
4.12402 3.00272 0.0 
5.12582 2.93724 0.0 
5.03068 2.92756 0.0 
5.11059 2.9397 0.0 
4.12604 2.99436 0.0 
4.36082 2.94957 0.0 
4.80108 2.94728 0.0 
4.30349 3.03036 0.0 
5.12875 2.94181 0.0 
4.74581 2.93176 0.0 
4.23653 2.99683 0.0 
5.11932 2.90713 0.0 
4.14031 3.00458 0.0 
4.12821 3.00368 0.0 
4.27351 3.06085 0.0 
4.71691 2.95791 0.0 
4.28323 3.00818 0.0 
4.19371 3.20374 0.0 
4.68602 2.9414 0.0 
4.90885 2.92143 0.0 
4.18109 3.24819 0.0 
4.13479 3.00518 0.0 
4.3577 2.97656 0.0 
4.35436 2.9839 0.0 
4.22267 3.18362 0.0 
4.99674 2.94852 0.0 
4.34957 2.97903 0.0 
5.06104 2.96123 0.0 
4.88962 2.93117 0.0 
4.15112 2.99671 0.0 
4.21856 3.19375 0.0 
5.13566 2.9417 0.0 
5.04415 2.95043 0.0 
5.08573 2.90983 0.0 
4.15468 2.99388 0.0 
5.04759 2.95908 0.0 
4.09512 3.00228 0.0 
4.9479 2.91453 0.0 
4.77208 2.95846 0.0 
5.10999 2.94622 0.0 
4.96284 2.92156 0.0 
5.09353 2.90155 0.0 
4.27369 3.07644 0.0 
5.11713 2.9451 0.0 
5.05943 2.95332 0.0 
4.99159 2.95708 0.0 
4.79616 2.92645 0.0 
4.91564 2.91465 0.0 
4.92916 2.91987 0.0 
5.1218 2.94373 0.0 
5.0057 2.95813 0.0 
4.91184 2.90744 0.0 
5.02133 2.9542 0.0 
5.11219 2.95076 0.0 
3.78786 3.05039 0.0 
5.1065 2.88697 0.0 
5.01653 2.96507 0.0 
5.04242 2.9426 0.0 
5.03346 2.96467 0.0 
5.11706 2.92732 0.0 
5.09983 2.95598 0.0 
5.11434 2.94229 0.0 
5.10617 2.95437 0.0 
4.29319 2.9611 0.0 
5.07723 2.88465 0.0 
5.11041 2.93272 0.0 
4.30497 3.01045 0.0 
4.32981 3.00628 0.0 
5.10629 2.91841 0.0 
5.11875 2.93776 0.0 
4.72429 2.90715 0.0 
5.10755 2.92582 0.0 
5.01556 2.92932 0.0 
5.10535 2.93615 0.0 
5.10685 2.94903 0.0 
5.10138 2.92912 0.0 
5.04387 2.93142 0.0 
4.92669 2.91546 0.0 
5.08747 2.99663 0.0 
4.99332 2.90781 0.0 
4.90918 2.91207 0.0 
4.97552 2.90863 0.0 
4.28755 3.017 0.0 
4.89155 2.94766 0.0 
5.07761 2.92149 0.0 
5.09474 2.92428 0.0 
4.92999 2.91034 0.0 
4.89752 2.91067 0.0 
5.00236 2.92995 0.0 
5.07672 2.94721 0.0 
5.0783 2.93431 0.0 
4.93055 2.91794 0.0 
4.31537 3.01374 0.0 
5.00824 2.90625 0.0 
5.00576 2.91547 0.0 
5.0116 2.94718 0.0 
4.99418 2.91297 0.0 
5.10024 2.94693 0.0 
5.02752 2.9436 0.0 
5.07278 2.93997 0.0 
4.93968 2.90407 0.0 
4.87736 2.92222 0.0 
4.13053 3.0039 0.0 
5.08321 2.94115 0.0 
5.00196 2.9421 0.0 
5.06925 2.95505 0.0 
4.1259 3.00415 0.0 
4.8561 2.93311 0.0 
5.09201 2.94564 0.0 
4.60932 2.94577 0.0 
4.98413 2.93319 0.0 
4.98965 2.93969 0.0 
5.00131 2.9198 0.0 
4.99111 2.92191 0.0 
5.0368 2.92029 0.0 
4.97466 2.9282 0.0 
5.05395 2.94556 0.0 
5.11729 2.94991 0.0 
5.08695 2.95538 0.0 
4.12953 3.00517 0.0 
4.09754 3.00545 0.0 
5.05741 2.93004 0.0 
4.99029 2.89598 0.0 
4.98071 2.91897 0.0 
4.25809 2.97544 0.0 
4.89134 2.90572 0.0 
4.88981 2.89448 0.0 
5.03655 2.93615 0.0 
5.08766 2.93483 0.0 
4.92705 2.92159 0.0 
4.96888 2.91151 0.0 
5.10267 2.95172 0.0 
4.97432 2.91365 0.0 
4.68221 2.95472 0.0 
4.3497 2.99109 0.0 
4.89095 2.94086 0.0 
5.09411 2.933 0.0 
5.05523 2.92127 0.0 
5.09697 2.94067 0.0 
4.90254 2.90787 0.0 
4.90064 2.90264 0.0 
4.33259 2.99706 0.0 
5.14146 2.95631 0.0 
4.97032 2.92013 0.0 
4.82674 2.91693 0.0 
4.94896 2.90754 0.0 
5.104 2.94286 0.0 
4.30237 2.99914 0.0 
4.92403 2.90659 0.0 
4.95227 2.91289 0.0 
4.91609 2.93185 0.0 
5.01276 2.94056 0.0 
4.88656 2.92144 0.0 
4.91326 2.9038 0.0 
4.94498 2.89916 0.0 
4.32424 3.00121 0.0 
4.83855 2.94335 0.0 
5.04796 2.90675 0.0 
4.26949 3.00597 0.0 
5.01433 3.05529 0.0 
4.33787 3.00042 0.0 
4.33223 2.98101 0.0 
5.04622 2.91495 0.0 
4.78356 2.93348 0.0 
4.98461 2.91084 0.0 
4.97056 2.91677 0.0 
4.97975 2.92617 0.0 
5.0738 2.95161 0.0 
5.08676 2.9264 0.0 
5.05675 2.91389 0.0 
4.95911 2.91823 0.0 
4.812 2.95215 0.0 
5.06818 2.93345 0.0 
4.5151 2.95097 0.0 
4.37191 2.96186 0.0 
5.06582 2.90927 0.0 
4.92724 2.90043 0.0 
5.02872 2.90312 0.0 
4.98874 2.92975 0.0 
4.32578 2.96903 0.0 
4.29453 3.02536 0.0 
4.35327 2.96469 0.0 
5.01428 2.91785 0.0 
4.34325 2.96894 0.0 
5.13603 2.96551 0.0 
4.31961 2.9893 0.0 
4.94305 2.91148 0.0 
4.28675 3.05839 0.0 
4.28825 2.99595 0.0 
5.02519 2.91902 0.0 
5.06958 2.92663 0.0 
4.14263 3.00936 0.0 
5.02132 2.91121 0.0 
4.32869 3.01568 0.0 
5.01389 2.90122 0.0 
4.91485 2.89747 0.0 
4.93741 2.92416 0.0 
4.28425 3.04405 0.0 
4.26681 2.99569 0.0 
4.78963 2.93693 0.0 
4.90374 2.93082 0.0 
4.93522 2.91356 0.0 
4.89684 2.9253 0.0 
5.06155 2.93877 0.0 
5.01783 2.92375 0.0 
4.33598 2.96425 0.0 
4.68654 2.91644 0.0 
4.36253 2.95846 0.0 
4.96553 2.8971 0.0 
5.09088 2.93934 0.0 
4.2152 3.22448 0.0 
5.0448 2.92612 0.0 
5.1323 2.95494 0.0 
5.09141 2.95101 0.0 
4.93712 2.90793 0.0 
4.99096 2.92581 0.0 
5.10037 2.93636 0.0 
4.22066 3.0463 0.0 
4.94636 2.92181 0.0 
4.96147 2.91459 0.0 
4.77362 2.94805 0.0 
5.03437 2.91256 0.0 
4.92023 2.91232 0.0 
4.28964 3.0701 0.0 
4.92137 3.0681 0.0 
5.00372 2.92471 0.0 
4.86789 2.92286 0.0 
4.10439 3.03141 0.0 
4.92229 2.93495 0.0 
3.9238 3.07175 0.0 
5.09664 2.95146 0.0 
5.01395 2.93551 0.0 
4.10257 3.00694 0.0 
4.354 2.95682 0.0 
4.27127 3.03559 0.0 
4.18731 3.23103 0.0 
4.88088 2.90167 0.0 
5.00519 2.91108 0.0 
4.21032 3.1984 0.0 
5.06702 2.94641 0.0 
4.96486 2.9077 0.0 
5.00063 2.93518 0.0 
5.07996 2.92871 0.0 
5.04994 2.93724 0.0 
3.67253 3.07769 0.0 
4.22171 3.21664 0.0 
4.39533 2.95245 0.0 
4.79288 2.91166 0.0 
5.06853 2.9172 0.0 
5.08646 2.91611 0.0 
4.827 2.9609 0.0 
4.95695 2.90279 0.0 
4.30236 2.98741 0.0 
4.36882 2.97141 0.0 
5.07899 2.95519 0.0 
5.038 2.89323 0.0 
4.81678 2.93296 0.0 
4.94078 2.89231 0.0 
5.06617 2.90029 0.0 
5.1619 2.9725 0.0 
4.9841 2.90434 0.0 
4.81408 2.92826 0.0 
3.69289 3.07314 0.0 
4.89685 2.91827 0.0 
5.08451 2.94895 0.0 
4.06127 2.99941 0.0 
4.41249 2.95381 0.0 
4.3819 2.95959 0.0 
4.10583 3.00793 0.0 
5.22403 2.88064 0.0 
4.0234 3.00359 0.0 
3.76891 3.06638 0.0 
5.1449 2.94102 0.0 
4.28887 3.08325 0.0 
4.37652 2.96957 0.0 
5.17481 2.95739 0.0 
4.25114 3.02178 0.0 
4.99202 3.21315 0.0 
4.95629 3.09453 0.0 
4.09421 3.00695 0.0 
5.13362 2.91411 0.0 
4.87937 2.92377 0.0 
4.85971 2.92978 0.0 
4.02284 3.01611 0.0 
4.83656 2.92771 0.0 
4.34551 2.96016 0.0 
4.71137 2.94927 0.0 
4.3061 2.96866 0.0 
4.88681 2.92923 0.0 
5.18161 2.92287 0.0 
5.12522 2.96284 0.0 
5.03954 3.11559 0.0 
4.31204 2.98581 0.0 
3.88788 3.0362 0.0 
4.09026 2.99853 0.0 
4.67285 2.92841 0.0 
4.20947 3.23239 0.0 
4.99041 3.01297 0.0 
5.14143 2.98549 0.0 
5.12661 2.95829 0.0 
3.71442 3.06358 0.0 
4.04476 3.00724 0.0 
4.90754 2.92659 0.0 
4.74253 2.95163 0.0 
4.3586 2.97008 0.0 
4.34086 2.97853 0.0 
4.05798 3.00949 0.0 
4.04136 3.00263 0.0 
5.21227 2.93545 0.0 
4.2397 3.09393 0.0 
4.94528 3.00803 0.0 
4.2808 2.98886 0.0 
4.79571 2.96053 0.0 
4.2173 3.01413 0.0 
3.7387 3.08492 0.0 
4.39056 2.96229 0.0 
4.20665 2.99797 0.0 
4.85185 2.92825 0.0 
4.05854 3.025 0.0 
5.02076 3.10907 0.0 
5.21983 2.91342 0.0 
3.60154 3.10665 0.0 
4.86618 2.94101 0.0 
3.99708 3.55187 0.0 
4.81448 2.94131 0.0 
4.56095 2.94452 0.0 
4.19264 3.02542 0.0 
5.12292 2.95694 0.0 
5.1236 2.95267 0.0 
5.15057 2.94897 0.0 
5.09556 3.26902 0.0 
4.21124 3.21863 0.0 
5.12899 2.96383 0.0 
5.17188 2.91109 0.0 
4.83475 2.95142 0.0 
4.77856 2.97016 0.0 
5.13443 2.96168 0.0 
5.05405 3.24201 0.0 
4.64247 2.93727 0.0 
4.22474 3.19941 0.0 
5.13304 2.97049 0.0 
4.38323 2.94782 0.0 
3.92524 3.03825 0.0 
4.27369 3.14201 0.0 
4.86193 2.93647 0.0 
4.25545 3.08153 0.0 
5.14414 2.97828 0.0 
4.19106 3.03244 0.0 
3.70583 3.0772 0.0 
4.16047 3.29935 0.0 
4.20523 3.19224 0.0 
4.75665 2.94254 0.0 
4.80461 2.97289 0.0 
4.15259 3.31135 0.0 
5.18707 2.93477 0.0 
4.6512 2.94843 0.0 
4.59988 2.93446 0.0 
5.18753 2.89174 0.0 
5.11986 2.9589 0.0 
[...]
<PointData>
  <DataArray type = "Float64" Name="Vitesse" NumberOfComponents="3" format="ascii">
-0.0116683 0.000917198 0.0 
-0.0174266 -0.0381825 0.0 
-0.047827 -0.0103801 0.0 
0.0108872 -0.0572308 0.0 
-0.00367549 -0.00810437 0.0 
0.0154969 -0.0130276 0.0 
-0.0801228 0.0235259 0.0 
0.00202315 -0.011911 0.0 
0.00272824 -0.0365063 0.0 
-0.0413377 -0.0651731 0.0 
0.0989096 0.0650445 0.0 
-0.0178156 -0.0913223 0.0 
-0.0226554 -0.0100004 0.0 
-0.0284344 -0.0775314 0.0 
-0.0179974 -0.00541631 0.0 
-0.00743528 -0.00332138 0.0 
-0.0140806 -0.00683277 0.0 
-0.0103034 -0.0087369 0.0 
-0.0194601 -0.00126747 0.0 
-0.0155648 -0.00298044 0.0 
0.0483294 -0.0276295 0.0 
-0.100893 -0.315315 0.0 
-0.0255594 0.00249738 0.0 
-0.00598795 -0.00490168 0.0 
0.0578812 0.0936696 0.0 
7.41759e-05 0.00630929 0.0 
-0.0945598 -0.136593 0.0 
-0.124003 -0.147547 0.0 
-0.0505554 0.208616 0.0 
-0.019796 -0.054843 0.0 
0.0029299 0.0978093 0.0 
0.0710199 0.00673058 0.0 
-0.00943827 -0.00398643 0.0 
0.0690494 0.0501992 0.0 
0.0759833 0.0770601 0.0 
0.0128967 0.138736 0.0 
-0.132714 -0.202978 0.0 
0.0298006 0.163551 0.0 
-0.00225489 -0.00630783 0.0 
-0.00385041 0.0117085 0.0 
-0.0129192 0.0212039 0.0 
0.0226483 -0.0440158 0.0 
-0.0126049 -0.0394527 0.0 
0.0171292 0.155218 0.0 
-0.00490129 -0.00263528 0.0 
-0.0101453 -0.00220318 0.0 
0.0258693 -0.0653257 0.0 
0.00671932 -0.0307834 0.0 
0.0193361 0.18118 0.0 
-0.0069994 -0.0407345 0.0 
0.0138614 0.0231167 0.0 
0.0370291 -0.0381878 0.0 
0.0208401 -0.0538114 0.0 
-0.00595775 -0.0522623 0.0 
-0.0106709 -0.0315735 0.0 
-0.00988634 0.0175436 0.0 
0.00745093 -0.0666458 0.0 
0.0204269 0.0238361 0.0 
0.0550725 0.171254 0.0 
-0.0131451 0.00877918 0.0 
-0.0110054 0.0229528 0.0 
-0.0381979 0.203253 0.0 
0.0373957 -0.0478913 0.0 
0.0246436 0.197316 0.0 
0.0839399 0.0301253 0.0 
-0.0703078 0.180817 0.0 
-0.0239092 -0.227338 0.0 
0.0148615 0.210636 0.0 
0.00341601 0.145564 0.0 
0.0108807 -0.0472868 0.0 
-0.121297 -0.124948 0.0 
-0.060211 -0.0919665 0.0 
0.010262 0.147274 0.0 
0.0308007 0.127009 0.0 
0.0477239 0.0272062 0.0 
0.0317067 -0.0187775 0.0 
-0.00371863 -0.0049988 0.0 
-0.0143152 -0.0286318 0.0 
-0.00393974 -0.0450321 0.0 
0.00743414 -0.0222051 0.0 
0.0303807 -0.00669889 0.0 
0.00225655 -0.0426755 0.0 
-0.0199 -0.0151758 0.0 
-0.0213969 -0.0457316 0.0 
0.0112308 -0.0375897 0.0 
-0.00494517 -0.0273135 0.0 
0.00188859 -0.0185051 0.0 
0.00104253 -0.036473 0.0 
-0.0121952 -0.0587551 0.0 
6.45121e-05 0.178377 0.0 
0.0131529 -0.0286204 0.0 
-0.000702088 -0.0152809 0.0 
-0.00349658 -0.0182935 0.0 
-0.0137506 -0.0483156 0.0 
0.000689928 -0.0236225 0.0 
-0.003602 0.205093 0.0 
-0.00204937 -0.00639531 0.0 
0.014844 -0.0205514 0.0 
-0.0564418 0.0655143 0.0 
0.0213682 -0.0261911 0.0 
0.0137859 0.00921846 0.0 
-0.014587 0.00296815 0.0 
0.0186111 0.0725377 0.0 
-0.00960101 -0.0239268 0.0 
0.0305989 -0.0208499 0.0 
-0.126639 0.0492189 0.0 
0.022935 -0.0342454 0.0 
0.0335979 -0.0282239 0.0 
-0.00557985 -0.0341074 0.0 
0.000925309 -0.0287779 0.0 
-0.0035072 -0.0223421 0.0 
0.0490367 0.0392126 0.0 
-0.0183111 0.0725993 0.0 
0.0184832 0.0466568 0.0 
0.0436781 -0.0178105 0.0 
0.075872 0.109319 0.0 
-0.169523 -0.191724 0.0 
-0.00535114 0.164871 0.0 
0.0416868 0.0296367 0.0 
-0.061466 -0.282348 0.0 
0.000604746 0.186276 0.0 
0.152015 0.0809935 0.0 
-0.011062 0.00942865 0.0 
-0.00788373 -0.0145771 0.0 
-0.0276563 0.153654 0.0 
-0.160015 -0.297475 0.0 
-0.0297422 0.214167 0.0 
-0.0212921 0.00673663 0.0 
-0.0630555 -0.338222 0.0 
-0.02791 -0.0313594 0.0 
-0.00845705 -0.00599981 0.0 
-0.0145292 -0.00186519 0.0 
0.0465888 0.0990387 0.0 
0.0419089 0.100789 0.0 
-0.01674 0.0214529 0.0 
-0.140365 0.0420277 0.0 
0.0376264 0.119663 0.0 
-0.109354 0.0376582 0.0 
-0.0900837 -0.0585949 0.0 
0.0298979 0.0320914 0.0 
-0.0158491 0.0164189 0.0 
0.0545064 0.0237392 0.0 
-0.102869 0.0542185 0.0 
0.113302 0.089484 0.0 
0.0449039 0.039015 0.0 
-0.123292 0.0433411 0.0 
-0.00539827 -0.0683752 0.0 
0.022675 0.0171058 0.0 
-0.206479 -0.229243 0.0 
0.000501753 0.0368543 0.0 
-0.0171496 0.0302905 0.0 
0.163507 0.0943256 0.0 
-0.0122546 0.126654 0.0 
0.0149536 0.0334086 0.0 
-0.093121 0.0493376 0.0 
-0.17788 0.032861 0.0 
-0.051856 -0.206271 0.0 
0.0166491 -0.0216812 0.0 
-0.0150417 -0.00549015 0.0 
0.0261373 0.0319573 0.0 
-0.168299 0.0382253 0.0 
0.0647186 -0.0261469 0.0 
-0.140958 0.0471975 0.0 
-0.00586238 0.0276935 0.0 
-0.0188046 -0.0740088 0.0 
0.253285 0.0991272 0.0 
-0.176904 0.0343297 0.0 
-0.0769866 0.062612 0.0 
-0.155272 0.0365555 0.0 
0.0665292 0.0599524 0.0 
-0.0369856 0.0273911 0.0 
0.016852 0.0402925 0.0 
-0.0228027 0.0257097 0.0 
0.083362 0.193484 0.0 
0.25464 0.10553 0.0 
0.0393565 0.0569518 0.0 
-0.0132442 0.18942 0.0 
0.0169887 0.140923 0.0 
0.0885237 0.0766887 0.0 
0.0361613 0.0439319 0.0 
0.0945645 -0.323994 0.0 
0.0614353 0.0670619 0.0 
-0.0369351 0.0648547 0.0 
0.0211472 0.0551514 0.0 
-0.0112167 0.0344252 0.0 
0.0408179 0.0662342 0.0 
-0.0272461 0.0729856 0.0 
0.0128939 -0.00788494 0.0 
-0.0926939 -0.0397371 0.0 
0.0792314 0.0608375 0.0 
0.0332291 -0.0299144 0.0 
0.0679419 0.0462179 0.0 
-0.0315261 0.204163 0.0 
-0.180023 -0.0577242 0.0 
0.0489281 0.081205 0.0 
0.0520635 0.074406 0.0 
0.0469018 -0.00293027 0.0 
0.0418259 -0.0460039 0.0 
-0.0477147 0.0573104 0.0 
-0.0527983 0.0529938 0.0 
-0.00630664 0.0685545 0.0 
-0.00250006 -0.00353294 0.0 
0.000825062 0.165243 0.0 
0.093885 0.0716804 0.0 
0.0364639 0.0664067 0.0 
-0.123688 0.0502792 0.0 
0.0470928 0.0598164 0.0 
-0.0168441 0.0421237 0.0 
-0.0958172 0.0591971 0.0 
-0.0342071 0.0633929 0.0 
0.0903719 0.00959713 0.0 
-0.0352758 -0.0758867 0.0 
-0.00871582 -0.0101577 0.0 
-0.0253487 0.058769 0.0 
-0.108817 0.0495771 0.0 
-0.0838452 0.0442479 0.0 
-0.0105705 -0.0190323 0.0 
-0.102283 -0.10829 0.0 
-0.0267805 0.0487082 0.0 
0.00496746 -0.343614 0.0 
-0.0750517 0.0435348 0.0 
-0.105489 0.0439712 0.0 
0.00889662 0.0617654 0.0 
-0.00823538 0.0539992 0.0 
0.0241836 0.0794322 0.0 
-0.0518068 0.0385104 0.0 
-0.0756358 0.059671 0.0 
0.00499819 0.0250611 0.0 
-0.0574883 0.0363146 0.0 
-0.0151695 -0.0122651 0.0 
-0.0212284 -0.0653764 0.0 
-0.00934404 0.0751185 0.0 
0.155276 0.0618648 0.0 
0.0050158 0.0469113 0.0 
0.0660363 0.191577 0.0 
0.0752411 -0.0545199 0.0 
0.154746 -0.0568582 0.0 
-0.055284 0.06771 0.0 
0.00193996 0.0653565 0.0 
-0.0262644 -0.00833903 0.0 
0.0474643 0.039037 0.0 
-0.0238504 0.0326973 0.0 
0.035371 0.0437426 0.0 
-0.110683 -0.326926 0.0 
0.0372166 0.105836 0.0 
-0.145083 -0.0577751 0.0 
0.0165925 0.0650206 0.0 
0.0313558 0.0819933 0.0 
-0.00464044 0.0533175 0.0 
0.0611996 -0.0387132 0.0 
0.0971805 -0.0412204 0.0 
0.0175181 0.145544 0.0 
0.0404638 -0.00904762 0.0 
-0.00592542 0.0377025 0.0 
0.00276746 -0.157255 0.0 
0.0685391 0.0196136 0.0 
-0.000770108 0.0463191 0.0 
-0.0116866 0.202835 0.0 
0.0715092 -0.0101003 0.0 
0.0342255 0.0221542 0.0 
-0.0905022 -0.0235838 0.0 
-0.0941988 0.0559934 0.0 
-0.0299344 -0.0622645 0.0 
0.0897789 -0.0239251 0.0 
0.124659 0.0167164 0.0 
0.00810371 0.161375 0.0 
-0.158332 -0.13461 0.0 
0.107598 0.0896214 0.0 
-0.0316172 0.216777 0.0 
-0.196433 -0.0918211 0.0 
0.0250959 0.127282 0.0 
0.0213443 0.16227 0.0 
0.0591995 0.0850543 0.0 
-0.0897688 -0.224335 0.0 
0.0568465 0.0531599 0.0 
0.0145033 0.0394426 0.0 
-0.0380851 0.0433598 0.0 
-0.0684771 0.047842 0.0 
0.0352653 0.0747003 0.0 
0.0716813 0.0870854 0.0 
0.00215134 0.0276381 0.0 
-0.197195 -0.173791 0.0 
-0.0137182 0.0712962 0.0 
0.0942128 -0.239243 0.0 
0.0673403 0.0713151 0.0 
0.102375 0.0914385 0.0 
0.114162 -0.00548767 0.0 
0.121224 0.0837196 0.0 
-0.0539258 0.0485954 0.0 
0.0349963 0.178711 0.0 
-0.0219795 0.186408 0.0 
0.0505121 0.121514 0.0 
0.0261556 0.0701233 0.0 
0.0398336 0.144165 0.0 
0.0199368 -0.0220418 0.0 
0.00671084 0.182569 0.0 
0.0415279 0.0121824 0.0 
-0.007237 0.144455 0.0 
-0.0132209 0.216783 0.0 
0.0251011 0.0750894 0.0 
0.0172326 0.0778686 0.0 
-0.0331085 0.013754 0.0 
0.0684823 0.076901 0.0 
0.0212113 0.13055 0.0 
0.127405 0.077068 0.0 
0.133672 -0.0210859 0.0 
-0.0399989 0.00325869 0.0 
-0.0249289 0.17208 0.0 
-0.0093061 0.214082 0.0 
-0.111052 -0.213312 0.0 
-0.0863511 -0.0392503 0.0 
0.0265498 0.00291024 0.0 
-0.0535968 -0.0479394 0.0 
-0.0423711 0.0665114 0.0 
-0.00526763 0.0691579 0.0 
0.044328 0.161415 0.0 
0.058851 -0.358764 0.0 
0.0634889 0.10065 0.0 
0.14221 0.039805 0.0 
-0.00820869 0.0578085 0.0 
-0.00892951 0.00587635 0.0 
-0.000644624 0.077214 0.0 
0.0245734 0.00256145 0.0 
-0.040499 0.0407683 0.0 
0.0640188 0.00594148 0.0 
-0.0311069 0.0521291 0.0 
0.0137685 0.0575683 0.0 
-0.101776 0.155794 0.0 
-0.0236182 0.0138109 0.0 
0.0257927 0.031044 0.0 
-0.161939 -0.232993 0.0 
0.0665881 0.0824426 0.0 
0.0325668 -0.0155193 0.0 
0.00827061 0.121151 0.0 
-0.277274 -0.0911842 0.0 
-0.018297 0.0608827 0.0 
-0.0393969 -0.0903344 0.0 
-0.110574 -0.05706 0.0 
-0.107074 -0.0166712 0.0 
-0.0551923 -0.100638 0.0 
-0.0332385 0.036996 0.0 
-0.0693629 0.0600196 0.0 
-0.0277377 -0.0587141 0.0 
0.061339 0.12364 0.0 
-0.0482934 0.19354 0.0 
-0.0131353 -0.00160464 0.0 
0.103373 -0.070381 0.0 
0.0624786 0.0681311 0.0 
-0.0175053 0.0128954 0.0 
-0.0632596 0.0569118 0.0 
0.0709706 0.0363149 0.0 
-0.076361 0.0533654 0.0 
0.0170867 0.074648 0.0 
-0.0480669 0.0684753 0.0 
-0.0133689 -0.0724805 0.0 
-0.00899012 0.00898753 0.0 
0.0937563 0.0105913 0.0 
0.0439631 -0.215543 0.0 
0.0619926 0.0860186 0.0 
0.0809513 0.0847778 0.0 
-0.238187 -0.148645 0.0 
0.101674 0.029463 0.0 
0.00233903 0.207613 0.0 
0.0592899 0.071673 0.0 
-0.0693227 0.0403782 0.0 
0.186787 0.0925462 0.0 
-0.0961589 -0.170898 0.0 
0.171522 0.0122982 0.0 
0.154401 0.0959621 0.0 
0.0701625 -0.0666928 0.0 
0.0981958 0.0554739 0.0 
-0.0672603 -0.176315 0.0 
-0.0236744 -0.0685036 0.0 
-0.00874989 -0.0474307 0.0 
-0.0462539 0.0473126 0.0 
0.00813316 -0.100647 0.0 
0.105303 -0.038847 0.0 
0.0783644 0.0435464 0.0 
-0.0320126 -0.0540193 0.0 
0.377302 0.0224922 0.0 
-0.0106341 -0.117777 0.0 
-0.0344093 -0.0683474 0.0 
0.0716638 0.0166949 0.0 
0.0162921 0.101926 0.0 
0.0673553 0.0505706 0.0 
0.10873 -0.0495916 0.0 
-0.0596029 0.202789 0.0 
-0.150072 -0.211235 0.0 
-0.2312 -0.111904 0.0 
-0.0288616 -0.0702063 0.0 
0.138156 0.0649236 0.0 
-0.0451214 -0.0729274 0.0 
-0.0824605 -0.102809 0.0 
-0.0570647 -0.114808 0.0 
-0.0679247 -0.139608 0.0 
0.0531269 0.14253 0.0 
-0.121216 -0.310449 0.0 
0.0434877 0.198549 0.0 
-0.0786501 -0.0624 0.0 
0.175973 0.0105978 0.0 
0.000597214 -0.00602013 0.0 
-0.14096 -0.181489 0.0 
0.00620459 0.196614 0.0 
-0.0313743 -0.109587 0.0 
0.0145354 -0.0741142 0.0 
0.00802986 -0.358343 0.0 
-0.00837348 0.00308063 0.0 
-0.248565 -0.0304543 0.0 
0.0197396 -0.0699975 0.0 
0.00877803 0.00151858 0.0 
-0.00952955 -0.0709437 0.0 
-0.0299496 -0.109104 0.0 
-0.0603481 -0.0336096 0.0 
-0.157259 -0.273649 0.0 
0.0502824 0.102601 0.0 
0.0297413 0.143462 0.0 
-0.0405747 -0.102154 0.0 
-0.00831828 -0.111228 0.0 
0.213341 -0.0535376 0.0 
-0.0506001 0.10819 0.0 
-0.299526 -0.0368596 0.0 
0.00224989 0.216102 0.0 
-0.227248 -0.194344 0.0 
-0.0492618 0.16357 0.0 
-0.0405196 -0.0654426 0.0 
0.084009 0.0162569 0.0 
0.0100063 0.142187 0.0 
-0.0726645 -0.115245 0.0 
-0.0882091 -0.0998248 0.0 
-0.163773 -0.158762 0.0 
0.266811 -0.019718 0.0 
-0.017214 -0.091333 0.0 
-0.14755 -0.0928227 0.0 
0.0211309 -0.0432773 0.0 
-0.143159 -0.172519 0.0 
0.0642646 -0.305107 0.0 
-0.0824671 0.117671 0.0 
0.00366024 0.00746398 0.0 
0.0114101 0.0148177 0.0 
0.0684177 -0.00403367 0.0 
-0.107468 -0.364189 0.0 
-0.0113981 0.00669699 0.0 
0.00707013 -0.0116404 0.0 
0.196935 0.0384978 0.0 
-0.19881 -0.138956 0.0 
-0.250753 -0.212888 0.0 
0.0203384 -0.0127226 0.0 
-0.120404 -0.295666 0.0 
-0.00259509 -0.358954 0.0 
-0.011871 0.0151286 0.0 
0.00966325 -0.0291559 0.0 
0.090179 0.0488961 0.0 
-0.0502336 -0.114012 0.0 
0.00983401 0.0476491 0.0 
-0.122126 -0.099235 0.0 
-0.037993 0.127386 0.0 
0.0286891 -0.0577548 0.0 
-0.0991599 0.112704 0.0 
-0.0423219 -0.0626776 0.0 
0.00725966 -0.017211 0.0 
-0.0215156 0.0140252 0.0 
-0.124995 -0.260799 0.0 
-0.273215 -0.17636 0.0 
0.0104358 -0.020099 0.0 
0.162739 -0.0184283 0.0 
-0.0531063 -0.346742 0.0 
0.0516303 -0.350388 0.0 
0.293444 0.0493238 0.0 
-0.00511084 0.00650771 0.0 
-0.0909904 -0.297607 0.0 
-0.018419 0.0495722 0.0 
-0.0256045 -0.0649491 0.0 
-0.0192357 0.0686304 0.0 
-0.0382006 0.0492141 0.0 
-0.0234221 -0.0783085 0.0 
-0.0689375 0.142254 0.0 
-0.222681 -0.0788473 0.0 
0.00952424 0.0797851 0.0 
-0.0799906 -0.111396 0.0 
-0.0167903 0.0262465 0.0 
-0.0100223 0.0568899 0.0 
0.101472 0.0104012 0.0 
0.0199381 0.0452023 0.0 
-0.0160198 0.0154718 0.0 
-0.0129652 0.0222078 0.0 
-0.0487939 0.0626216 0.0 
-0.022765 0.0351185 0.0 
-0.280008 -0.0411067 0.0 
0.000838946 -0.266156 0.0 
-0.0749616 -0.0240661 0.0 
-0.00900323 0.0287977 0.0 
-0.0271345 0.0523701 0.0 
-0.181909 -0.0835513 0.0 
-0.00594165 0.0815806 0.0 
0.664251 -0.0824667 0.0 
-0.00412819 0.0221343 0.0 
0.0564926 -0.0445006 0.0 
-0.022215 0.131817 0.0 
0.108214 -0.0737682 0.0 
-0.0513598 0.0386357 0.0 
-0.0311181 0.0386129 0.0 
-0.0202519 -0.0668424 0.0 
0.0361027 -0.249795 0.0 
-0.0212272 0.0973927 0.0 
-0.0411949 -0.119097 0.0 
0.0128291 0.0638871 0.0 
0.00185539 0.0627586 0.0 
-0.00583991 0.113925 0.0 
0.0455963 0.0142964 0.0 
-0.0477487 0.0849778 0.0 
0.0066996 0.0363869 0.0 
-0.110016 -0.0948956 0.0 
0.00750538 0.0502872 0.0 
-0.0226765 0.0224848 0.0 
-0.0136393 0.0391972 0.0 
0.258087 0.0236598 0.0 
0.129126 -0.0337674 0.0 
-0.0370763 -0.123511 0.0 
-0.0100533 0.0183812 0.0 
0.0212402 0.172023 0.0 
-0.0761613 0.160866 0.0 
-0.0693776 0.194119 0.0 
-0.0236021 -0.147157 0.0 
-0.0227785 0.0129719 0.0 
-0.0237309 -0.101391 0.0 
-0.0296815 0.0278385 0.0 
0.0191193 -0.0462529 0.0 
0.0653828 0.157659 0.0 
0.0076883 -0.0750753 0.0 
-0.0036583 0.0423765 0.0 
0.113988 0.0275674 0.0 
-0.00155999 0.0310632 0.0 
-0.165543 -0.185854 0.0 
0.00675177 -0.0203165 0.0 
0.563196 -0.241363 0.0 
0.426321 0.0806616 0.0 
0.439869 -0.295274 0.0 
0.908708 -0.399752 0.0 
-0.00072539 -0.0739019 0.0 
0.153647 -0.172591 0.0 
-0.0375171 0.146114 0.0 
-0.185506 -0.136846 0.0 
-0.0426106 -0.17309 0.0 
-0.039837 -0.0968839 0.0 
-0.0198361 0.00821439 0.0 
-0.0613911 0.0271598 0.0 
-0.00994076 0.00197748 0.0 
-0.0376111 -0.0805862 0.0 
0.316591 -0.171889 0.0 
0.0311608 0.19484 0.0 
-0.227644 -0.0911772 0.0 
0.0746159 0.0394571 0.0 
-0.107969 -0.264427 0.0 
-0.0315268 -0.0662777 0.0 
0.0123752 0.108719 0.0 
0.699172 -0.186349 0.0 
-0.0536256 0.170497 0.0 
0.500389 -0.111253 0.0 
0.329763 -0.0917271 0.0 
0.155366 -0.208762 0.0 
0.0702323 -0.285822 0.0 
0.0889178 -0.135278 0.0 
0.273391 -0.228986 0.0 
-0.0921852 -0.260668 0.0 
0.0532168 -0.371301 0.0 
0.00766307 -0.241793 0.0 
0.0411116 -0.0898195 0.0 
0.162878 -0.150457 0.0 
0.0224305 -0.210427 0.0 
0.11476 -0.119795 0.0 
0.0394653 -0.330208 0.0 
-0.0653881 -0.217988 0.0 
-0.00296087 -0.0906298 0.0 
-0.0272764 0.186488 0.0 
-0.0945418 -0.222924 0.0 
0.424263 -0.182297 0.0 
-0.0618034 -0.0189283 0.0 
-0.0322461 -0.0842984 0.0 
0.0937542 -0.189061 0.0 
0.72349 -0.343652 0.0 
-0.0209221 -0.266137 0.0 
0.0752062 0.196909 0.0 
-0.0590317 -0.274599 0.0 
0.0580015 -0.201893 0.0 
-0.00353635 0.0574892 0.0 
-0.0251026 -0.17946 0.0 
-0.138402 -0.22183 0.0 
-0.0072079 -0.000456615 0.0 
0.00586595 0.0210993 0.0 
-0.000211974 -0.155888 0.0 
-0.0428545 -0.203314 0.0 
0.0121938 -0.0872905 0.0 
-0.122035 -0.217 0.0 
-0.0483039 -0.253102 0.0 
-0.126608 -0.258827 0.0 
0.0521843 -0.0681696 0.0 
-0.0234449 0.0492335 0.0 
0.0055339 0.0708485 0.0 
0.390068 -0.0406741 0.0 
0.00302322 -0.015021 0.0 
0.106998 -0.314001 0.0 
-0.047983 -0.0924034 0.0 
-0.0312617 -0.0642367 0.0 
-0.0812956 0.158663 0.0 
-0.0474997 -0.147475 0.0 
-0.00600266 0.0128902 0.0 
0.0465318 0.00404346 0.0 
-0.0276714 0.0174686 0.0 
0.524729 -0.0173415 0.0 
-0.00311017 -0.097711 0.0 
0.245108 0.0606831 0.0 
-0.0106741 0.0115394 0.0 
-0.067477 -0.0647364 0.0 
-0.0155336 0.00917786 0.0 
0.109466 -0.362554 0.0 
-0.0529746 -0.11204 0.0 
-0.177673 -0.161772 0.0 
0.119151 -0.00352872 0.0 
-0.0682618 0.185391 0.0 
-0.00777632 0.017686 0.0 
-0.00608652 0.0228095 0.0 
-0.0341797 0.106269 0.0 
-0.00649644 -0.000803168 0.0 
-0.0460599 0.134686 0.0 
-0.00825693 -0.000126422 0.0 
-0.0175874 -0.0911213 0.0 
-0.034114 -0.0632712 0.0 
-0.0410586 -0.128442 0.0 
0.00257326 0.0258641 0.0 
-0.252756 -0.0919535 0.0 
-0.0986495 -0.181034 0.0 
-0.0517566 -0.0184051 0.0 
-0.0928621 0.137421 0.0 
-0.022591 -0.0722795 0.0 
-0.0379359 -0.0168936 0.0 
-0.0293168 -0.0678766 0.0 
-0.0329935 0.072864 0.0 
-0.0439182 -0.0178306 0.0 
-0.0243922 -0.0954774 0.0 
-0.0285859 0.0235917 0.0 
-0.0251162 -0.0839114 0.0 
-0.0267814 -0.0749672 0.0 
0.0312423 -0.0308407 0.0 
0.010774 -0.185845 0.0 
0.12341 -0.153288 0.0 
-0.0299635 -0.0886027 0.0 
0.0224755 -0.0184024 0.0 
-0.00602221 -0.0175828 0.0 
0.0193182 -0.0274678 0.0 
-0.00276455 -0.0118315 0.0 
0.0665988 -0.03342 0.0 
0.0541027 -0.00602015 0.0 
0.138295 -0.0928368 0.0 
-0.0716969 0.0958348 0.0 
-0.00139765 -0.0757828 0.0 
-0.0185293 -0.103325 0.0 
-0.0337264 0.0167252 0.0 
-0.00791299 0.0887866 0.0 
-0.014525 0.0057146 0.0 
0.0187733 -0.0197569 0.0 
-0.0195344 -0.0299512 0.0 
-0.00401718 -0.010341 0.0 
-0.247702 -0.112088 0.0 
-0.0428041 -0.0360255 0.0 
0.0289802 -0.0124187 0.0 
0.135624 0.0500764 0.0 
-0.0436153 0.0255741 0.0 
-0.0145867 0.0048788 0.0 
0.213515 0.0742066 0.0 
-0.0106313 0.0318867 0.0 
0.0192711 -0.0314102 0.0 
-0.0398582 -0.00733028 0.0 
-0.0237084 0.109105 0.0 
-0.0113525 0.00389814 0.0 
-0.145614 0.0354439 0.0 
0.0282747 0.0177153 0.0 
0.0198945 -0.0347929 0.0 
0.0346715 0.0464595 0.0 
-0.0156182 0.0373824 0.0 
-0.090457 0.162099 0.0 
0.0049394 -0.0267557 0.0 
-0.0506465 0.0176733 0.0 
0.0282309 0.207922 0.0 
-0.0248484 0.08148 0.0 
-0.00693988 -0.0079093 0.0 
-0.0265513 -0.00862755 0.0 
-0.0391268 -0.00567676 0.0 
0.0192502 -0.0262142 0.0 
-0.0882999 -0.079664 0.0 
0.0500642 -0.0198143 0.0 
0.074938 0.171902 0.0 
-0.0146696 0.0113441 0.0 
-0.12991 0.0333832 0.0 
0.0219533 -0.0311203 0.0 
-0.0313689 -0.0644084 0.0 
0.0507044 -0.0531507 0.0 
-0.212974 0.0209131 0.0 
-0.0639262 0.139305 0.0 
0.0219831 -0.0452526 0.0 
0.0122076 -0.0322955 0.0 
0.0778045 -0.0933845 0.0 
-0.0400818 -0.0646611 0.0 
-0.00934407 0.0499977 0.0 
-0.168723 -0.0756096 0.0 
-0.0235928 -0.0672757 0.0 
-0.0823991 0.181771 0.0 
0.0147057 -0.0282942 0.0 
-0.0643579 -0.0752039 0.0 
0.021985 -0.0275006 0.0 
0.0112577 0.0300379 0.0 
0.0568338 -0.0616125 0.0 
0.289845 0.0913666 0.0 
-0.00805221 -0.0727425 0.0 
0.0302851 -0.0237812 0.0 
-0.0353467 0.0225592 0.0 
-0.00400476 -0.0962291 0.0 
-0.0261456 -0.120729 0.0 
0.00552602 -0.00202936 0.0 
0.0522537 -0.0456426 0.0 
-0.0483267 0.000174265 0.0 
-0.0369668 0.0314684 0.0 
-0.0451276 0.0112189 0.0 
-0.000867112 0.0341457 0.0 
0.0246199 -0.0164186 0.0 
-0.155291 -0.0145627 0.0 
-0.00652892 -0.0136459 0.0 
0.0423537 0.206545 0.0 
-0.0724113 -0.10875 0.0 
-0.144273 -0.0195866 0.0 
-0.105571 0.0197796 0.0 
-0.00951411 -0.0693259 0.0 
-0.0299634 -0.0748587 0.0 
-0.312544 -0.0473092 0.0 
-0.0366704 -0.0690233 0.0 
-0.0124461 -0.0284893 0.0 
0.0173265 -0.103636 0.0 
-0.0335296 -0.064181 0.0 
0.0246922 -0.0460627 0.0 
-0.00642149 -0.037577 0.0 
-0.0107532 -0.0803606 0.0 
-0.108745 0.137233 0.0 
-0.000509589 0.0160651 0.0 
0.0111245 -0.0258323 0.0 
0.132523 -0.101028 0.0 
-0.270496 -0.0659451 0.0 
-0.0238623 -0.298273 0.0 
-0.0116305 -0.0100101 0.0 
0.00647475 -0.0853537 0.0 
0.0390011 -0.0215214 0.0 
-0.00384329 -0.019516 0.0 
-0.0366297 -0.0642283 0.0 
0.036006 -0.021575 0.0 
-0.311051 -0.156331 0.0 
-0.0307784 0.00457808 0.0 
0.000293942 0.00182086 0.0 
0.01921 0.0205348 0.0 
-0.0162407 -0.0699227 0.0 
-0.0357928 -0.0687768 0.0 
-0.00933384 -0.0998519 0.0 
-0.0374464 -0.102657 0.0 
-0.00429588 -0.068661 0.0 
-0.113654 -0.0557139 0.0 
-0.000400922 -0.011324 0.0 
-0.0832586 -0.0426174 0.0 
0.0105036 0.0056238 0.0 
0.0357684 0.107479 0.0 
0.0174282 0.0089387 0.0 
-0.00408668 0.0092098 0.0 
-0.121817 0.107053 0.0 
-0.0473467 -0.0617221 0.0 
-0.0469755 -0.12229 0.0 
-0.0840749 -0.11159 0.0 
0.00411179 0.00339763 0.0 
0.0278568 -0.0445157 0.0 