<VTKFile type="UnstructuredGrid" version="0.1" byte_order="LittleEndian">
  <UnstructuredGrid>
    <Piece NumberOfPoints="18955" NumberOfCells="37835">
      <Points>
        <DataArray type = "Float64" NumberOfComponents="3" format="ascii">
4.68812 4.1171 0.0 
4.35973 3.90655 0.0 
4.74202 4.17937 0.0 
4.43184 3.98312 0.0 
4.34353 2.90069 0.0 
4.13537 3.98157 0.0 
4.03106 3.92609 0.0 
4.75672 4.20525 0.0 
4.35107 2.91449 0.0 
4.62704 4.09338 0.0 
4.33819 2.91143 0.0 
4.74571 4.22129 0.0 
4.61298 4.10149 0.0 
4.37521 3.81369 0.0 
4.66692 4.04368 0.0 
4.11691 3.83507 0.0 
4.24946 2.92844 0.0 
4.05268 3.99108 0.0 
4.67316 4.13682 0.0 
4.49329 4.0634 0.0 
4.54545 4.24594 0.0 
4.65743 4.12307 0.0 
4.14978 2.97376 0.0 
4.63003 4.10511 0.0 
4.64492 4.11101 0.0 
4.69859 4.18949 0.0 
4.70762 4.12312 0.0 
4.1783 2.96039 0.0 
4.65802 4.13171 0.0 
4.62608 4.08342 0.0 
4.02946 3.99465 0.0 
4.66436 4.11951 0.0 
4.10617 2.95288 0.0 
4.08149 3.76516 0.0 
4.03069 3.98679 0.0 
4.2075 4.00613 0.0 
3.42208 3.24468 0.0 
4.36607 3.86538 0.0 
4.66646 4.1092 0.0 
4.64619 4.1015 0.0 
4.60721 4.07714 0.0 
4.5667 4.07002 0.0 
4.09436 3.98854 0.0 
4.72396 4.20748 0.0 
4.58808 4.08121 0.0 
4.02436 3.96712 0.0 
4.22098 2.94502 0.0 
4.08002 2.96404 0.0 
4.60745 4.08603 0.0 
4.21653 3.99868 0.0 
4.60275 3.66852 0.0 
4.54183 4.06273 0.0 
4.42702 3.83904 0.0 
4.09215 3.98646 0.0 
4.76722 4.32732 0.0 
4.18294 3.97158 0.0 
4.51779 4.05361 0.0 
4.33026 3.76733 0.0 
4.66907 4.1447 0.0 
4.61449 3.75767 0.0 
4.56907 4.04462 0.0 
3.25403 3.69827 0.0 
4.46413 3.54545 0.0 
4.10391 2.9717 0.0 
3.43413 3.24538 0.0 
4.75548 4.34575 0.0 
4.13879 3.79365 0.0 
4.11186 3.98326 0.0 
4.58416 4.2197 0.0 
4.60026 3.71137 0.0 
4.53349 4.22956 0.0 
4.17806 3.9929 0.0 
4.38034 3.99477 0.0 
4.39672 4.02616 0.0 
4.60839 4.09366 0.0 
4.50237 4.21149 0.0 
4.63071 4.07774 0.0 
4.37334 4.02092 0.0 
4.40038 3.92223 0.0 
4.45986 4.01894 0.0 
4.75186 4.21357 0.0 
3.60699 3.10346 0.0 
4.76158 4.36307 0.0 
4.59616 4.07836 0.0 
4.75796 4.35687 0.0 
4.69998 4.14365 0.0 
4.33993 3.93857 0.0 
3.41131 3.26454 0.0 
4.74345 4.26155 0.0 
3.42681 3.24907 0.0 
4.31979 2.92068 0.0 
4.64663 4.1338 0.0 
4.73155 4.19206 0.0 
4.07081 3.87922 0.0 
4.1277 3.97009 0.0 
4.56737 3.62383 0.0 
4.41365 4.0012 0.0 
4.11417 3.9868 0.0 
4.02209 3.96932 0.0 
4.49505 3.97268 0.0 
4.27555 3.70316 0.0 
4.7485 4.15151 0.0 
4.40302 3.96143 0.0 
4.15195 3.96841 0.0 
3.41224 3.25872 0.0 
4.56415 4.13375 0.0 
3.39741 3.28906 0.0 
3.642 3.08093 0.0 
3.3812 3.30688 0.0 
4.46417 4.06054 0.0 
4.3208 3.60315 0.0 
3.42526 3.26027 0.0 
3.2366 3.60908 0.0 
4.71157 4.31933 0.0 
4.35744 2.90312 0.0 
4.22553 2.95645 0.0 
3.6695 3.0667 0.0 
3.42138 3.26054 0.0 
4.19753 2.95847 0.0 
4.67157 4.35218 0.0 
4.72215 4.30673 0.0 
4.73268 4.33012 0.0 
4.72653 4.35869 0.0 
4.10563 3.96346 0.0 
3.65097 3.07222 0.0 
4.33904 4.04763 0.0 
4.71851 4.39953 0.0 
4.75373 4.28766 0.0 
4.71931 4.15497 0.0 
4.7049 4.4368 0.0 
3.37264 3.39521 0.0 
4.02361 3.96384 0.0 
3.35607 3.3941 0.0 
4.19953 2.97155 0.0 
4.02269 3.9631 0.0 
3.33885 3.52548 0.0 
4.72547 4.14472 0.0 
4.10088 3.86236 0.0 
4.02191 3.9623 0.0 
3.62357 3.09118 0.0 
4.30037 2.93059 0.0 
4.27912 2.93993 0.0 
4.02636 3.95455 0.0 
3.3332 3.4797 0.0 
4.02305 3.96648 0.0 
3.23267 3.65388 0.0 
4.16383 2.9731 0.0 
4.26239 3.99772 0.0 
3.3517 3.42306 0.0 
4.74846 4.34271 0.0 
4.14955 3.99482 0.0 
3.34365 3.41509 0.0 
4.02523 3.9493 0.0 
3.32664 3.47425 0.0 
4.1662 3.99313 0.0 
4.67928 4.40555 0.0 
4.0218 3.96632 0.0 
4.02841 3.99365 0.0 
4.54943 4.05617 0.0 
4.39752 2.88945 0.0 
3.35496 3.38291 0.0 
4.56541 4.07723 0.0 
4.53332 4.20191 0.0 
4.58194 4.06903 0.0 
3.3373 3.44692 0.0 
4.02083 3.99573 0.0 
4.74498 4.19358 0.0 
4.02376 3.99475 0.0 
4.40714 2.87494 0.0 
4.05701 3.85841 0.0 
4.02201 3.99531 0.0 
4.66376 4.15163 0.0 
4.58792 4.06101 0.0 
4.30643 3.993 0.0 
4.02679 3.94344 0.0 
4.31849 2.90919 0.0 
4.05427 3.84246 0.0 
3.36586 3.37279 0.0 
4.38837 3.97819 0.0 
4.14583 2.98537 0.0 
4.02453 3.95778 0.0 
4.03801 3.98919 0.0 
4.68127 4.1617 0.0 
4.02614 3.95253 0.0 
4.39237 2.87993 0.0 
4.03524 3.92642 0.0 
4.42219 2.87463 0.0 
4.07538 3.98053 0.0 
4.4322 2.90904 0.0 
3.36452 3.38709 0.0 
4.03351 3.99116 0.0 
4.69363 4.14942 0.0 
4.03027 3.98458 0.0 
4.38911 2.90041 0.0 
4.75277 4.35927 0.0 
4.73969 4.34708 0.0 
4.43672 4.16788 0.0 
4.43979 2.86991 0.0 
4.40842 2.88881 0.0 
4.35415 4.12386 0.0 
4.4238 2.88341 0.0 
4.41492 2.89728 0.0 
4.07166 3.86535 0.0 
3.3399 3.50397 0.0 
3.32822 3.45079 0.0 
4.44376 2.88527 0.0 
4.25105 2.94227 0.0 
4.43394 2.88373 0.0 
4.36274 4.1322 0.0 
4.64389 4.12053 0.0 
3.33816 3.49064 0.0 
3.3294 3.51354 0.0 
4.01671 3.98291 0.0 
3.35245 3.43014 0.0 
3.34106 3.45314 0.0 
4.03364 3.98788 0.0 
4.70413 4.13498 0.0 
4.15102 3.95762 0.0 
4.49496 4.20081 0.0 
3.34797 3.42191 0.0 
4.36242 2.91029 0.0 
4.15576 3.99323 0.0 
3.3575 3.40299 0.0 
4.36334 2.87665 0.0 
3.34987 3.44698 0.0 
4.36422 2.89426 0.0 
3.33416 3.61653 0.0 
4.0431 3.90342 0.0 
4.37912 2.88334 0.0 
4.73797 4.36801 0.0 
3.37142 3.34527 0.0 
4.59148 3.59667 0.0 
4.36958 2.90289 0.0 
4.92231 3.65992 0.0 
4.01778 3.99521 0.0 
4.37871 2.89543 0.0 
4.41117 4.14704 0.0 
3.26695 3.64831 0.0 
4.72174 4.27616 0.0 
4.01744 3.9832 0.0 
4.62321 4.09714 0.0 
3.38467 3.32192 0.0 
4.2304 4.01487 0.0 
3.35772 3.43198 0.0 
4.75342 4.33304 0.0 
4.54819 3.55545 0.0 
3.34285 3.46983 0.0 
4.00639 2.98959 0.0 
4.17731 2.97366 0.0 
4.01906 3.99532 0.0 
4.51062 4.19783 0.0 
4.48093 4.17428 0.0 
4.11795 3.98402 0.0 
3.31006 3.6006 0.0 
3.25988 3.6959 0.0 
4.40003 2.90143 0.0 
3.23111 3.63975 0.0 
4.70927 4.37374 0.0 
3.27324 3.66525 0.0 
4.35716 2.88822 0.0 
3.32541 3.59642 0.0 
3.35329 3.37413 0.0 
3.33262 3.54422 0.0 
3.39982 3.31422 0.0 
3.30259 3.57252 0.0 
3.33887 3.59539 0.0 
4.38743 2.8897 0.0 
3.31056 3.53423 0.0 
4.33067 3.97922 0.0 
4.232 3.94104 0.0 
3.32078 3.55421 0.0 
4.59448 4.28611 0.0 
4.21707 3.9953 0.0 
4.73012 4.29396 0.0 
3.33196 3.5697 0.0 
4.76848 4.29591 0.0 
3.32016 3.67552 0.0 
4.028 3.96056 0.0 
4.14435 3.98537 0.0 
3.34173 3.55975 0.0 
4.02669 3.94898 0.0 
4.92007 3.65074 0.0 
4.72725 4.13427 0.0 
4.17801 3.99536 0.0 
3.43242 3.27157 0.0 
3.26113 3.67417 0.0 
4.74916 4.32687 0.0 
4.92508 2.93269 0.0 
4.03026 3.9369 0.0 
4.96543 2.95472 0.0 
4.02118 3.99368 0.0 
4.01917 3.99449 0.0 
4.40308 4.12881 0.0 
4.74542 4.24406 0.0 
4.02844 3.94379 0.0 
3.28755 3.64588 0.0 
4.47626 4.19389 0.0 
4.3365 2.92169 0.0 
3.27583 3.63038 0.0 
4.29567 4.09565 0.0 
4.05613 3.8449 0.0 
4.6697 4.10071 0.0 
4.07087 3.81633 0.0 
4.7418 4.32524 0.0 
4.68621 4.34236 0.0 
3.41508 3.3066 0.0 
3.38016 3.34037 0.0 
4.73693 4.16493 0.0 
4.75349 4.23689 0.0 
3.3968 3.31124 0.0 
3.35889 3.42223 0.0 
4.10809 3.72351 0.0 
4.63083 4.03286 0.0 
4.58622 4.01009 0.0 
4.92709 2.93058 0.0 
4.42843 2.89631 0.0 
4.94649 3.66658 0.0 
3.22858 3.65506 0.0 
3.39542 3.32926 0.0 
4.49826 4.00582 0.0 
4.04718 3.90808 0.0 
4.02978 3.98921 0.0 
4.13527 2.98205 0.0 
3.23083 3.6614 0.0 
3.37208 3.3877 0.0 
3.3763 3.35679 0.0 
4.02073 3.99499 0.0 
4.73327 4.31161 0.0 
4.44598 3.51581 0.0 
3.4131 3.28581 0.0 
3.23384 3.62202 0.0 
4.6339 3.66818 0.0 
4.07407 3.92905 0.0 
3.34608 3.50688 0.0 
4.03588 3.97211 0.0 
4.66546 3.69024 0.0 
3.37792 3.38107 0.0 
4.47332 4.15824 0.0 
3.40388 3.32173 0.0 
4.02431 3.99222 0.0 
4.04696 3.98117 0.0 
4.67972 4.09571 0.0 
4.04266 3.99268 0.0 
3.23113 3.64626 0.0 
4.91992 2.93422 0.0 
4.95264 2.93757 0.0 
3.36577 3.40474 0.0 
4.02223 3.9945 0.0 
4.73558 4.41194 0.0 
4.57989 4.23548 0.0 
3.36924 3.35753 0.0 
3.2354 3.63813 0.0 
3.41568 3.28639 0.0 
4.46813 4.05295 0.0 
3.23311 3.66708 0.0 
3.37197 3.38046 0.0 
4.58668 4.04063 0.0 
4.02542 3.99389 0.0 
4.49001 3.63603 0.0 
3.23543 3.62961 0.0 
3.38543 3.72665 0.0 
3.39072 3.32872 0.0 
4.30767 3.8269 0.0 
3.40411 3.30552 0.0 
4.03662 3.99402 0.0 
4.92954 2.93131 0.0 
4.25153 3.9591 0.0 
4.64048 4.35472 0.0 
4.09307 3.95338 0.0 
4.33264 4.11582 0.0 
4.04105 3.92197 0.0 
4.69853 4.09806 0.0 
3.41688 3.27751 0.0 
4.02851 3.93598 0.0 
4.0291 3.98245 0.0 
3.41008 3.30464 0.0 
3.41984 3.29191 0.0 
3.42645 3.27507 0.0 
3.61243 3.09584 0.0 
3.40494 3.29329 0.0 
3.41763 3.28776 0.0 
3.41014 3.27724 0.0 
3.41662 3.2734 0.0 
4.91497 2.92934 0.0 
3.42261 3.27505 0.0 
3.34302 3.6334 0.0 
4.0929 3.99162 0.0 
3.32934 3.64092 0.0 
3.41222 3.29772 0.0 
4.78611 4.25937 0.0 
4.93429 2.94584 0.0 
3.34669 3.59782 0.0 
4.93587 3.66555 0.0 
3.39403 3.29895 0.0 
4.04485 3.99123 0.0 
4.94989 2.93484 0.0 
3.34466 3.52606 0.0 
4.08849 3.93885 0.0 
4.0398 3.98612 0.0 
3.40568 3.28774 0.0 
4.09331 3.96578 0.0 
3.39144 3.30606 0.0 
4.1497 3.7574 0.0 
3.38633 3.32753 0.0 
3.36225 3.40234 0.0 
3.38309 3.34282 0.0 
4.93569 2.93523 0.0 
3.90232 2.99742 0.0 
3.37791 3.36806 0.0 
4.07163 3.9762 0.0 
3.35689 3.44145 0.0 
3.37834 3.73233 0.0 
3.41058 3.27076 0.0 
3.38154 3.36769 0.0 
3.42457 3.24633 0.0 
4.91753 2.93132 0.0 
3.40851 3.29778 0.0 
4.76129 4.30854 0.0 
3.37349 3.36988 0.0 
3.38329 3.35597 0.0 
4.62602 4.33324 0.0 
4.22492 3.97766 0.0 
3.39555 3.33662 0.0 
3.43465 3.27842 0.0 
4.91983 2.93296 0.0 
3.41806 3.29802 0.0 
3.40581 3.29682 0.0 
4.18587 3.96309 0.0 
3.42533 3.28183 0.0 
4.13204 3.91976 0.0 
3.24273 3.62088 0.0 
3.62901 3.09176 0.0 
3.32892 3.40691 0.0 
3.34704 3.48327 0.0 
3.39649 3.28479 0.0 
3.3409 3.66844 0.0 
4.83302 2.93764 0.0 
3.35247 3.64031 0.0 
3.24728 3.68012 0.0 
3.43762 3.27728 0.0 
3.23114 3.63308 0.0 
4.42073 4.16177 0.0 
4.01937 3.99358 0.0 
4.04101 3.90288 0.0 
3.35559 3.62267 0.0 
3.35068 3.57958 0.0 
3.42807 3.29193 0.0 
3.40722 3.31297 0.0 
3.39673 3.30587 0.0 
3.40076 3.31769 0.0 
3.36444 3.69798 0.0 
3.40622 3.32326 0.0 
3.35039 3.46012 0.0 
3.36906 3.40719 0.0 
4.26369 3.77031 0.0 
4.01983 3.99572 0.0 
3.42569 3.29115 0.0 
4.0177 3.9945 0.0 
4.56483 2.94117 0.0 
4.9741 3.95167 0.0 
3.43041 3.28088 0.0 
3.38673 3.34429 0.0 
3.32213 3.50791 0.0 
3.35545 3.57014 0.0 
3.36532 3.41716 0.0 
3.25644 3.62407 0.0 
4.87338 3.64668 0.0 
3.34953 3.55161 0.0 
[...]
<PointData>
  <DataArray type = "Float64" Name="Vitesse" NumberOfComponents="3" format="ascii">
0.0512689 0.0579661 0.0 
0.00657994 0.0144509 0.0 
0.0799182 0.144034 0.0 
0.0160831 0.0162498 0.0 
0.231174 0.121416 0.0 
-0.000398482 0.00396204 0.0 
0.00110607 0.000154006 0.0 
0.063456 0.152561 0.0 
0.144731 0.152584 0.0 
-1.02151e-16 -1.15401e-16 0.0 
0.187951 0.148412 0.0 
1.90305e-06 7.45622e-06 0.0 
-1.01923e-16 -1.02991e-16 0.0 
0.00397102 0.0174651 0.0 
0.0419651 0.0713514 0.0 
0.00221588 0.00282139 0.0 
0.308749 0.125106 0.0 
-2.90767e-05 0.00105408 0.0 
-1.24476e-16 -1.63295e-16 0.0 
-1.59875e-18 -1.49139e-18 0.0 
-0.0064 0.0135771 0.0 
-1.23995e-16 -1.4209e-16 0.0 
0.171947 0.0535831 0.0 
-1.11018e-16 -1.16541e-16 0.0 
-1.1747e-16 -1.28277e-16 0.0 
-7.60855e-17 -1.10115e-16 0.0 
0.0788765 0.0975412 0.0 
0.229664 0.0884615 0.0 
-1.11341e-16 -1.29537e-16 0.0 
0.0254001 0.0253357 0.0 
-2.63537e-05 0.00108568 0.0 
0.0271564 0.0337576 0.0 
0.385992 -0.046945 0.0 
0.00378975 0.000327009 0.0 
0.000576734 0.00143292 0.0 
-3.21858e-19 -4.07288e-18 0.0 
-2.23513e-16 2.45742e-16 0.0 
0.00519639 0.0160103 0.0 
0.0663723 0.0823879 0.0 
0.0217381 0.0270221 0.0 
0.00538968 0.00504402 0.0 
-7.8408e-17 -8.02812e-17 0.0 
-5.89704e-05 0.00325788 0.0 
-1.27521e-16 -2.20944e-16 0.0 
0.000437621 0.000370594 0.0 
0.000898094 0.000376932 0.0 
0.260597 0.12615 0.0 
0.299469 -0.0763361 0.0 
-9.18949e-17 -9.92025e-17 0.0 
-1.30676e-18 -9.62327e-18 0.0 
-0.011185 0.0183196 0.0 
-6.9069e-17 -6.47168e-17 0.0 
0.00495228 0.0209046 0.0 
-5.52519e-05 0.00309919 0.0 
0.000901795 0.0146936 0.0 
0.00100065 0.00386082 0.0 
-5.97391e-17 -5.29395e-17 0.0 
0.00317598 0.0149947 0.0 
-1.12552e-16 -1.44469e-16 0.0 
-0.0105389 0.0295445 0.0 
0.0373512 0.0320657 0.0 
-2.93272e-17 -6.45228e-18 0.0 
0.00035806 0.0121076 0.0 
0.218363 -0.0349914 0.0 
3.39017e-05 1.42815e-05 0.0 
-4.94822e-18 -1.02867e-16 0.0 
0.00289241 0.00395698 0.0 
4.91373e-05 0.00263953 0.0 
-4.52807e-05 3.90088e-05 0.0 
-0.0105235 0.0234642 0.0 
-0.00502642 0.0137219 0.0 
2.17999e-05 0.000329293 0.0 
0.0102571 0.0107666 0.0 
-1.21861e-17 -1.24986e-17 0.0 
-9.66927e-17 -9.89055e-17 0.0 
-0.00158573 0.013025 0.0 
0.0529281 0.0516632 0.0 
-8.94105e-18 -1.10191e-17 0.0 
0.00900826 0.0175976 0.0 
0.00791447 0.00668332 0.0 
0.0354867 0.0989702 0.0 
0.0543867 -0.0983144 0.0 
2.17451e-18 -1.72771e-16 0.0 
0.00311732 0.00265233 0.0 
2.37036e-18 -1.37438e-16 0.0 
0.00626518 0.00922997 0.0 
0.00697866 0.0120604 0.0 
3.23424e-08 1.36246e-08 0.0 
3.15686e-06 1.23666e-05 0.0 
2.94211e-35 -3.24926e-35 0.0 
0.18403 0.166514 0.0 
-5.0679e-17 -5.18733e-17 0.0 
0.00490987 0.00813419 0.0 
0.00169172 0.000698336 0.0 
-0.000244113 0.00356154 0.0 
-0.007159 0.0144822 0.0 
0.0128309 0.0132383 0.0 
-5.86264e-05 0.00255261 0.0 
0.00082673 0.000296258 0.0 
0.0194096 0.0250945 0.0 
0.00335376 0.0120824 0.0 
0.0791414 0.148204 0.0 
0.0119083 0.0150447 0.0 
-0.000126556 0.00381361 0.0 
-9.51862e-17 1.04702e-16 0.0 
5.52033e-37 5.22802e-37 0.0 
1.21614e-35 -1.38222e-35 0.0 
0.125757 -0.134331 0.0 
1.3789e-35 -1.65764e-35 0.0 
-4.78251e-20 -5.97865e-20 0.0 
0.00408565 0.0134583 0.0 
0.00192493 0.000811702 0.0 
0.00323531 -0.00725793 0.0 
3.4253e-41 1.62492e-40 0.0 
0.183297 0.126144 0.0 
0.183936 0.152227 0.0 
0.1617 -0.152916 0.0 
0.000116814 4.92153e-05 0.0 
0.216352 0.117015 0.0 
8.96068e-56 1.55567e-55 0.0 
6.45423e-37 2.64553e-36 0.0 
-7.14867e-21 -7.29785e-20 0.0 
2.52045e-39 3.85346e-37 0.0 
-6.49689e-05 0.00285541 0.0 
0.192824 -0.163431 0.0 
1.77951e-38 4.23736e-38 0.0 
1.23814e-39 3.37646e-38 0.0 
8.46915e-08 8.09171e-07 0.0 
0.0420412 0.0700167 0.0 
3.35398e-57 -3.1882e-57 0.0 
0.0207149 0.0055524 0.0 
0.00102465 0.000314053 0.0 
1.60645e-58 -2.79985e-58 0.0 
0.137268 0.137089 0.0 
0.00108069 0.000272053 0.0 
0.00240888 -0.000268675 0.0 
0.0693184 0.110429 0.0 
0.00168934 0.00199979 0.0 
0.00110953 0.000235539 0.0 
0.0991076 -0.12057 0.0 
0.177624 0.177999 0.0 
0.17446 0.180346 0.0 
0.00104498 0.000246722 0.0 
0.00152205 -0.0002023 0.0 
0.000920317 0.000346458 0.0 
0.00714497 -0.0151632 0.0 
0.165449 0.0801442 0.0 
7.72908e-05 0.000268056 0.0 
0.000213774 7.47153e-05 0.0 
-2.12602e-19 -2.59106e-18 0.0 
1.64082e-05 8.72133e-05 0.0 
5.35312e-58 -1.0087e-57 0.0 
0.00110197 0.000235844 0.0 
0.000145667 -1.93605e-05 0.0 
2.7831e-06 6.57049e-05 0.0 
-3.60304e-47 4.68847e-47 0.0 
0.000938462 0.000330761 0.0 
0.000109665 0.00204671 0.0 
0.00100883 0.000940555 0.0 
0.175809 0.0540133 0.0 
1.19856e-55 -1.8088e-55 0.0 
-7.68098e-17 -7.82393e-17 0.0 
-0.00118058 0.00519047 0.0 
0.00651836 0.00552229 0.0 
7.62402e-05 -1.0133e-05 0.0 
7.37762e-05 0.00126001 0.0 
0.0635184 0.126906 0.0 
0.000297734 0.0017418 0.0 
0.225598 0.0185999 0.0 
0.00154189 -4.66277e-05 0.0 
0.000106945 0.00301644 0.0 
-5.7113e-17 -7.68392e-17 0.0 
0.032511 0.0276256 0.0 
0.00516914 0.0104364 0.0 
0.00130413 0.000191525 0.0 
0.251889 0.136448 0.0 
0.00123653 0.000381492 0.0 
0.00140399 0.000383332 0.0 
0.0123014 0.0128461 0.0 
0.101807 0.0533457 0.0 
0.00104776 0.00022185 0.0 
9.66853e-05 0.00140235 0.0 
-1.13819e-16 -1.62298e-16 0.0 
0.00101935 0.00023822 0.0 
0.225634 0.0485485 0.0 
0.0012094 0.000147807 0.0 
0.213671 -0.0164504 0.0 
-1.65651e-05 0.00227886 0.0 
0.138665 -0.0648287 0.0 
0.00606406 0.0023352 0.0 
6.49556e-05 0.00177222 0.0 
-1.30822e-16 -2.00759e-16 0.0 
0.000690483 0.00124104 0.0 
0.143211 0.0828102 0.0 
2.44212e-18 -5.64324e-17 0.0 
-1.8925e-20 -2.11563e-19 0.0 
-0.000649158 0.00978669 0.0 
0.225129 -0.0658732 0.0 
0.17067 0.0270102 0.0 
-0.00350379 0.00985629 0.0 
0.183364 -0.0183917 0.0 
0.145828 0.00908688 0.0 
0.00175978 0.000545297 0.0 
0.00399298 -0.000473267 0.0 
1.46166e-56 -3.24285e-56 0.0 
0.186703 -0.0877863 0.0 
0.218326 0.157185 0.0 
0.186693 -0.0533241 0.0 
-0.00284545 0.0100743 0.0 
-1.03976e-16 -1.09116e-16 0.0 
0.00497972 -0.000661863 0.0 
-1.02357e-73 2.22244e-73 0.0 
0.00123975 0.000227143 0.0 
0.00249536 -9.60262e-05 0.0 
6.25653e-60 -1.34473e-59 0.0 
0.000286238 0.00154066 0.0 
0.0373855 0.047349 0.0 
0.000151211 0.00395626 0.0 
-0.000942382 0.0119513 0.0 
1.04214e-05 3.64235e-06 0.0 
0.141403 0.136598 0.0 
-9.6284e-07 1.06109e-05 0.0 
1.56901e-59 -2.54689e-59 0.0 
0.317557 0.0538064 0.0 
0.00118883 -0.000128215 0.0 
0.213367 0.101478 0.0 
4.27603e-43 -2.13204e-43 0.0 
0.00133499 0.000538808 0.0 
0.234648 0.0690697 0.0 
-6.46523e-21 -7.22749e-20 0.0 
1.73804e-54 -2.54847e-54 0.0 
-0.00875796 0.0113777 0.0 
0.15973 0.116842 0.0 
-0.0756508 0.0296094 0.0 
0.000411589 0.00142133 0.0 
0.176505 0.0936584 0.0 
-0.00268165 0.0111718 0.0 
1.66947e-36 -2.51804e-36 0.0 
3.19016e-36 7.96479e-36 0.0 
0.00128606 0.000238038 0.0 
-1.03515e-16 -1.11367e-16 0.0 
0.000772949 0.000296098 0.0 
9.00154e-38 2.91048e-37 0.0 
0.00956245 -0.000548614 0.0 
-7.3454e-18 -7.43187e-17 0.0 
-0.00470666 0.00994863 0.0 
0.0118548 -0.00157571 0.0 
0.0971981 -0.137786 0.0 
0.148225 0.102597 0.0 
0.000481741 0.00120627 0.0 
-0.00185763 0.0107787 0.0 
-0.0007357 0.00382699 0.0 
0.000363884 0.00303005 0.0 
2.90813e-55 -3.98812e-55 0.0 
-5.13048e-18 -9.60564e-19 0.0 
0.134159 0.0558031 0.0 
0.0107532 -0.0320432 0.0 
5.12278e-41 4.64272e-40 0.0 
9.38327e-37 -4.83722e-37 0.0 
0.265831 0.0868722 0.0 
3.2422e-56 -4.91327e-56 0.0 
4.49692e-54 -6.95851e-54 0.0 
1.23601e-41 -6.16279e-42 0.0 
0.0266155 0.0112237 0.0 
3.06195e-40 -9.25706e-40 0.0 
1.53907e-40 -7.67389e-41 0.0 
0.187825 0.0721069 0.0 
7.83191e-45 -1.4754e-44 0.0 
0.00787637 0.0092558 0.0 
0.00265288 0.00689943 0.0 
6.53066e-43 -3.25689e-43 0.0 
-0.00658739 0.0120252 0.0 
-1.84896e-18 -1.10594e-17 0.0 
-2.58897e-22 -1.14658e-21 0.0 
3.00523e-06 -4.12029e-07 0.0 
0.00925202 0.0677756 0.0 
4.67102e-54 2.32242e-54 0.0 
0.000990663 0.000364668 0.0 
-0.000389163 0.00327611 0.0 
0.00829472 -0.00113724 0.0 
0.00111345 0.000235286 0.0 
-0.0698636 0.0285132 0.0 
0.0723595 0.118682 0.0 
1.96169e-06 2.98748e-05 0.0 
0.0149752 0.00585998 0.0 
4.03881e-36 -1.23466e-36 0.0 
-1.91253e-18 -2.0115e-17 0.0 
0.0152981 -0.0223738 0.0 
0.00125136 0.000162113 0.0 
-0.144518 0.0649434 0.0 
0.000910164 0.00167106 0.0 
0.00083179 0.00110825 0.0 
-9.84265e-05 0.000405793 0.0 
2.21968e-05 8.69798e-05 0.0 
0.00124238 0.000217521 0.0 
2.0492e-41 -3.86035e-41 0.0 
0.00016871 0.0115088 0.0 
0.142458 0.172125 0.0 
2.30547e-37 -4.34945e-37 0.0 
-0.00139488 0.00253199 0.0 
0.00153625 0.000367278 0.0 
0.0729968 0.0849835 0.0 
0.00305083 0.00134915 0.0 
-1.6845e-19 -1.7239e-18 0.0 
5.77027e-55 1.59247e-54 0.0 
0.022347 0.00589361 0.0 
0.000401091 0.000139668 0.0 
0.0860061 0.142722 0.0 
0.0162493 0.0634393 0.0 
0.0113663 0.00432115 0.0 
0.0144065 -0.000341675 0.0 
0.003622 0.00196895 0.0 
0.0411742 0.0594766 0.0 
0.0337337 0.0428091 0.0 
0.031096 -0.0175918 0.0 
0.155359 -0.0396419 0.0 
-0.0759536 0.0308653 0.0 
0.0237059 -0.055228 0.0 
0.0171992 0.0103357 0.0 
0.0259192 0.0223726 0.0 
0.00131673 0.000586741 0.0 
0.000536221 0.00158916 0.0 
0.127701 0.0304772 0.0 
0.00467453 -0.010414 0.0 
0.0191939 0.00789303 0.0 
0.00584888 0.00150258 0.0 
0.00065064 0.00185026 0.0 
-2.99607e-22 -1.32687e-21 0.0 
0.00136669 0.0110733 0.0 
0.00259954 0.0010594 0.0 
0.000175099 -0.000392808 0.0 
-0.0150355 0.0176689 0.0 
0.000756182 0.0015769 0.0 
0.0179348 -0.000765083 0.0 
0.000639059 0.00090212 0.0 
-0.019584 0.0199368 0.0 
0.0195137 0.00790342 0.0 
3.42319e-58 3.79971e-58 0.0 
0.0218688 0.00933956 0.0 
0.000633949 0.00160114 0.0 
0.000179713 0.00142743 0.0 
0.0748893 0.0877959 0.0 
0.000191883 0.00146317 0.0 
0.0190626 -0.040526 0.0 
0.00378417 -0.0346509 0.0 
-0.0200463 0.0393715 0.0 
0.0176618 0.00179499 0.0 
0.000380155 0.00192694 0.0 
8.1322e-38 1.46858e-36 0.0 
-0.00109905 0.000948493 0.0 
2.57715e-56 -3.81547e-56 0.0 
0.00296662 -0.00766071 0.0 
0.0149076 0.00580559 0.0 
-9.4648e-18 -1.10264e-17 0.0 
0.00554859 -0.0104303 0.0 
0.0232363 0.00929084 0.0 
0.0423769 0.0414377 0.0 
0.000452961 0.00167912 0.0 
-0.00144249 0.0168143 0.0 
0.000362026 -0.00167498 0.0 
-3.56056e-74 -1.0132e-74 0.0 
0.011452 0.00486371 0.0 
0.00341096 0.0133276 0.0 
0.0291934 0.0115484 0.0 
6.05269e-05 0.000499137 0.0 
0.025723 -0.0119047 0.0 
0.00345345 0.00711903 0.0 
-0.000675545 0.00080336 0.0 
9.42298e-05 0.00250777 0.0 
-0.00317276 0.00686447 0.0 
0.00117006 0.000323549 0.0 
0.0716945 0.0978138 0.0 
0.00112333 0.000503915 0.0 
0.00128376 0.00015894 0.0 
0.000816676 0.0010304 0.0 
0.0244116 0.00679924 0.0 
0.0192955 0.00392612 0.0 
0.0118126 0.00486763 0.0 
0.100645 -0.11979 0.0 
0.00231981 0.000891155 0.0 
0.0150018 0.00386865 0.0 
2.19549e-06 8.48786e-07 0.0 
0.000126114 5.62234e-05 0.0 
0.0402298 -0.0465831 0.0 
0.00892299 0.00401741 0.0 
1.25631e-41 -6.264e-42 0.0 
0.000443761 0.00390697 0.0 
9.08962e-59 2.74173e-59 0.0 
0.022724 0.00577476 0.0 
0.0460753 0.183698 0.0 
-0.0818439 -0.00132034 0.0 
2.7101e-40 -1.35127e-40 0.0 
-0.0778947 0.0338393 0.0 
1.15467e-36 -1.31232e-36 0.0 
0.000167223 0.00113949 0.0 
9.5876e-05 0.0335325 0.0 
0.021261 -0.00235385 0.0 
0.000375745 0.00222219 0.0 
0.000161502 0.00142201 0.0 
0.000149587 5.73912e-05 0.0 
-3.3844e-05 0.00263558 0.0 
6.40161e-53 -8.04847e-53 0.0 
0.00343059 0.00437154 0.0 
1.78448e-54 -2.40352e-54 0.0 
0.00431364 0.00111065 0.0 
0.0020001 0.000597272 0.0 
-0.00333868 0.00205801 0.0 
0.133836 -0.153038 0.0 
0.0217694 0.00675261 0.0 
5.42156e-05 0.00212608 0.0 
0.0067671 -0.000941246 0.0 
-3.59991e-72 -1.23418e-72 0.0 
2.51317e-06 1.0587e-06 0.0 
0.0220073 0.00621838 0.0 
-6.88376e-18 7.57052e-18 0.0 
0.0253845 -0.0403431 0.0 
0.0266866 0.00984829 0.0 
-4.68097e-17 -2.45283e-16 0.0 
0.0183194 0.00609036 0.0 
0.0216349 0.00579551 0.0 
-0.00179013 0.00416656 0.0 
0.00246683 0.00542067 0.0 
0.017593 0.0085008 0.0 
0.0154968 0.00303792 0.0 
0.0131726 -0.0348712 0.0 
0.0216227 0.00474443 0.0 
0.011005 0.00422196 0.0 
0.00117517 0.00448372 0.0 
0.0139832 0.0038495 0.0 
0.000493781 0.00370278 0.0 
-9.15331e-17 2.61474e-16 0.0 
0.0715435 -0.109781 0.0 
6.23975e-42 -1.27966e-41 0.0 
0.0209118 -0.00277972 0.0 
1.44313e-08 6.07936e-09 0.0 
7.85833e-59 2.37033e-59 0.0 
-0.016197 -0.260964 0.0 
-2.18908e-75 -1.9033e-77 0.0 
-2.49545e-17 1.65935e-17 0.0 
0.0157359 0.00289956 0.0 
0.0058272 -0.026692 0.0 
-0.00122644 0.00971845 0.0 
0.00107055 0.00112658 0.0 
0.00130976 0.000465274 0.0 
0.0248621 -0.00427999 0.0 
0.0291191 -0.00380576 0.0 
0.0201423 0.00216065 0.0 
0.0235127 0.00800942 0.0 
0.00308934 0.0011845 0.0 
0.0244377 0.0106391 0.0 
0.0043642 -0.00206467 0.0 
0.0219728 0.00867389 0.0 
0.0173625 -0.00232615 0.0 
0.0210104 0.00207839 0.0 
0.00294944 0.0113606 0.0 
9.13419e-05 0.000421266 0.0 
0.0196726 0.00263242 0.0 
0.000969804 0.000944601 0.0 
0.091352 -0.500878 0.0 
-0.0632651 -0.00485542 0.0 
0.0150653 0.00278994 0.0 
0.0164971 0.00610623 0.0 
2.32136e-05 -3.08531e-06 0.0 
0.0439963 -0.00525514 0.0 
0.0204142 -0.000752584 0.0 
-9.31623e-23 2.56851e-22 0.0 
-0.0595886 0.00323238 0.0 
0.0383185 -0.0049629 0.0 
0.00177166 0.00693123 0.0 
0.00889133 -0.0649153 0.0 
-1.3038e-74 -2.38496e-75 0.0 
0.000100382 0.00148762 0.0 
-0.0829997 0.0319553 0.0 
-1.16617e-19 3.21703e-19 0.0 
-0.0685472 0.0120504 0.0 
9.20195e-05 0.00196811 0.0 
0.00130043 5.10088e-05 0.0 
-0.0567935 0.00231903 0.0 
-0.00349921 0.00706315 0.0 
-2.97848e-18 -2.45542e-19 0.0 
0.0598292 0.0668109 0.0 
-0.0784048 0.0251201 0.0 
0.00329592 0.00402061 0.0 
4.72941e-53 -7.00146e-53 0.0 
-0.00216903 0.00669532 0.0 
-0.0638922 -0.36553 0.0 
0.00220721 0.00768277 0.0 
0.00472963 -0.0478659 0.0 
0.00115349 0.000333198 0.0 
0.0348475 0.0426835 0.0 
-0.000124174 0.00185211 0.0 
-7.20232e-17 2.45819e-16 0.0 
0.00101545 0.000265511 0.0 
-0.00191715 0.00790844 0.0 
0.0011799 0.000141311 0.0 
-0.088746 0.0323122 0.0 
0.177391 -0.0169681 0.0 
0.000947366 0.000456465 0.0 
-0.00163613 0.00480525 0.0 
8.12882e-45 2.51757e-44 0.0 
-1.00915e-16 2.06773e-16 0.0 
2.56671e-05 6.26634e-05 0.0 
0.000156941 0.00156957 0.0 
0.00184781 0.00571459 0.0 
-0.00913214 0.00866222 0.0 
8.74365e-54 -1.67851e-53 0.0 
1.47548e-40 -3.38686e-40 0.0 
0.00121485 0.000179708 0.0 
-1.47607e-18 6.26234e-18 0.0 
4.83709e-37 -1.8656e-36 0.0 
0.00195614 0.000530879 0.0 
0.000127511 0.00138431 0.0 
3.667e-36 -1.03651e-35 0.0 
0.104646 -0.400531 0.0 
-3.81088e-05 0.0102784 0.0 
-0.0011489 0.01323 0.0 
0.00196788 0.000657822 0.0 
0.0490993 -0.10162 0.0 
-0.000886604 0.0043867 0.0 
-0.0487363 -0.0006855 0.0 
-0.00518144 0.010845 0.0 
0.0332572 0.0293198 0.0 
-0.00091461 0.00973887 0.0 
0.00365992 0.000494861 0.0 
0.00213079 0.000134435 0.0 
-0.0219452 0.0280281 0.0 
1.24569e-05 3.78215e-05 0.0 
0.00120344 0.00233037 0.0 
0.00012631 0.00209103 0.0 
0.000256245 0.0020388 0.0 
0.000230375 0.00185671 0.0 
-0.0002386 0.00104901 0.0 
1.7589e-43 -3.60719e-43 0.0 
0.015541 -0.0491573 0.0 
-0.00239042 0.00890755 0.0 
4.19311e-37 -7.73849e-37 0.0 
0.00344733 0.0012496 0.0 
0.000167233 0.0018581 0.0 
0.000182129 0.00189975 0.0 
0.0595451 0.17622 0.0 
0.000971752 0.00158278 0.0 
2.62281e-38 -6.98771e-38 0.0 
0.000123926 0.00153045 0.0 
0.000421129 0.00182211 0.0 
-4.12763e-19 1.13961e-18 0.0 
0.000381659 0.00174527 0.0 
0.00128687 0.00165193 0.0 
0.00108533 4.63173e-05 0.0 
0.023034 -0.00623514 0.0 
0.0627721 -0.0375648 0.0 
-1.37287e-20 -1.7189e-20 0.0 
8.72708e-53 -1.30712e-52 0.0 
4.97825e-37 -1.32168e-36 0.0 
0.000990794 0.000333606 0.0 
-1.64505e-19 3.68319e-19 0.0 
-0.00249643 0.00452419 0.0 
0.0145099 0.0395087 0.0 
0.00252052 0.0170153 0.0 
3.98551e-55 -7.47047e-55 0.0 
1.00837e-19 6.72916e-19 0.0 
0.000789426 0.00132652 0.0 
1.26227e-19 -2.63476e-18 0.0 
-0.05538 0.00801899 0.0 
0.00118995 0.000213092 0.0 
-0.0639354 0.0219618 0.0 
2.85238e-58 -8.76583e-58 0.0 
0.00565783 0.0765167 0.0 
-0.000625623 0.00188291 0.0 
-0.00529744 0.00640022 0.0 
-7.2681e-18 -8.8048e-18 0.0 
-0.105749 0.0776595 0.0 
0.0209079 -0.0780159 0.0 
-7.05922e-05 0.00336959 0.0 
-0.0680287 0.0191464 0.0 
0.00273483 0.00818647 0.0 
0.000105479 0.00225686 0.0 
1.01347e-05 0.00153848 0.0 
-0.0605641 0.00813033 0.0 
-1.12929e-05 3.39877e-05 0.0 
-0.0384094 -0.00491416 0.0 
5.98546e-24 -2.14793e-23 0.0 
1.02113e-52 -1.44963e-52 0.0 
-2.85987e-75 -3.44269e-75 0.0 
0.00343813 -0.0872235 0.0 
-0.000984904 0.00374735 0.0 
-1.71457e-05 0.00238911 0.0 
0.0421619 -0.0695475 0.0 
-0.0925743 0.0329474 0.0 
9.00178e-05 0.001546 0.0 
-0.00301989 0.0035682 0.0 
0.00658805 0.00814556 0.0 
0.000758517 0.00087014 0.0 
0.00447629 0.00782755 0.0 
-0.000184848 0.000556328 0.0 
9.89945e-06 0.0017662 0.0 
-0.00165888 0.00650426 0.0 
0.00549912 0.00853608 0.0 
-0.0319941 -0.00352752 0.0 
-0.038553 -0.0010046 0.0 
0.00119937 0.000134658 0.0 
-0.0447905 0.000271237 0.0 
-0.0450241 0.00704685 0.0 
-2.50907e-39 2.16462e-37 0.0 
0.00150322 0.0144958 0.0 
0.00085097 0.00209817 0.0 
-0.0382022 0.00285031 0.0 
1.5639e-05 0.000110488 0.0 
-3.22306e-05 0.00250417 0.0 
-0.00015154 0.00422152 0.0 
0.0159473 0.0621916 0.0 
0.00618341 0.00768649 0.0 
0.00596228 0.00323176 0.0 
2.439e-21 -2.43886e-20 0.0 
-0.035575 -9.28807e-05 0.0 
0.215612 -0.0712901 0.0 
0.167831 -0.106377 0.0 
0.00168738 0.00264384 0.0 
0.00406755 0.000416229 0.0 
0.000299437 0.00140601 0.0 
-0.106873 0.0429209 0.0 
0.0047835 0.0112109 0.0 
0.0166259 0.0161716 0.0 
1.97649e-05 0.00282103 0.0 
-0.000296833 0.000862158 0.0 
0.00240273 0.0192448 0.0 
-3.85905e-06 0.00235154 0.0 
0.00420268 0.0115568 0.0 
0.00393064 0.0135213 0.0 
-1.9114e-06 6.53219e-06 0.0 
-0.0737588 0.0565391 0.0 
-0.0580406 0.0156289 0.0 
0.00525082 0.00694742 0.0 
-0.0327714 -0.00589966 0.0 
9.8396e-05 0.00342735 0.0 
0.0255041 -0.0579992 0.0 
0.00125067 0.00127627 0.0 
0.0338286 -0.0920626 0.0 
0.000730809 0.000753564 0.0 
-0.000538588 0.00236792 0.0 
-0.0573666 -0.00954994 0.0 
0.00255549 0.0057268 0.0 
0.0244118 -0.0292438 0.0 
-0.0028968 0.0096214 0.0 
0.000127581 0.00111896 0.0 
0.00132142 0.00507395 0.0 
0.0282191 0.0289068 0.0 
0.000772921 0.000711355 0.0 
3.98889e-38 -8.19978e-38 0.0 
8.49188e-20 -3.98769e-19 0.0 
-2.2806e-19 2.89756e-19 0.0 
-8.96893e-75 -9.87084e-75 0.0 
0.000843245 0.00104547 0.0 
0.00119771 0.0010173 0.0 
-0.10365 0.0496724 0.0 
-0.00157519 0.0117515 0.0 
0.000399271 0.00255661 0.0 
-0.00685952 0.0093622 0.0 
6.62644e-39 -1.31562e-38 0.0 
0.357099 0.0987382 0.0 
-0.0700338 0.00742731 0.0 
-0.000124521 0.00386285 0.0 
0.000416582 0.00131703 0.0 
0.000107184 0.00127414 0.0 
0.0189873 0.0159852 0.0 
-0.000251786 0.00334021 0.0 
-1.57816e-05 0.003639 0.0 
0.00374643 0.00650316 0.0 
0.000866515 0.0044171 0.0 
1.84089e-42 6.42957e-42 0.0 
0.00130774 0.000729194 0.0 
0.00058367 0.00102802 0.0 
0.0358213 0.0371218 0.0 
0.0451401 0.0490413 0.0 
6.07608e-05 0.00784975 0.0 
5.50171e-07 3.06291e-05 0.0 
-0.0596889 0.00567293 0.0 
0.00144595 0.00772802 0.0 
0.0410985 0.171042 0.0 
-1.34439e-16 -1.94088e-16 0.0 
-0.0950428 0.0288672 0.0 
-0.000206381 0.00350913 0.0 
7.40583e-05 0.000823438 0.0 
-1.03373e-05 0.00261928 0.0 
8.95087e-37 -2.61234e-36 0.0 
-2.93702e-05 0.00836277 0.0 
-0.000265473 0.00279919 0.0 
0.000273936 0.00245201 0.0 
-0.0856613 0.0299259 0.0 
-0.0154356 0.0242023 0.0 
0.000137505 0.00284971 0.0 
-8.43745e-18 1.50882e-17 0.0 
0.000508305 0.00199165 0.0 
0.00274763 0.010803 0.0 
-0.106135 0.0434927 0.0 
-0.146782 0.0210482 0.0 
-0.0353629 0.00385867 0.0 
0.0393802 -0.11467 0.0 
-1.41723e-16 -2.30494e-16 0.0 
0.0018433 0.00842046 0.0 
0.00146778 0.00910615 0.0 
-0.000288873 0.00372012 0.0 
-0.0428783 0.00317398 0.0 
0.0207184 -0.615568 0.0 
0.000908477 0.00944769 0.0 
-0.0397111 -0.00634002 0.0 
0.00315184 0.0101414 0.0 
0.0330344 0.129492 0.0 
-9.47445e-19 -8.17681e-18 0.0 
-2.78589e-17 -2.52992e-17 0.0 
0.155316 -0.127969 0.0 
0.239258 -0.137326 0.0 
0.00553604 0.00921213 0.0 
0.00320487 0.00950996 0.0 
0.000269922 0.00132976 0.0 
0.00207029 0.00510235 0.0 
-2.70349e-17 -3.07297e-17 0.0 
0.000952367 0.000904711 0.0 
-0.0294761 -0.00943368 0.0 
0.00151762 0.0145684 0.0 
-5.21493e-18 -7.42619e-18 0.0 
0.0381945 -0.0090759 0.0 
-0.0241356 -0.00727319 0.0 
0.000198292 0.00135989 0.0 
0.00142766 0.0023708 0.0 
-1.13243e-47 1.47357e-47 0.0 
3.06531e-56 3.64601e-56 0.0 