<VTKFile type="UnstructuredGrid" version="0.1" byte_order="LittleEndian">
  <UnstructuredGrid>
    <Piece NumberOfPoints="19188" NumberOfCells="38286">
      <Points>
        <DataArray type = "Float64" NumberOfComponents="3" format="ascii">
4.21959 2.99508 0.0 
4.27448 2.97402 0.0 
4.25672 2.98611 0.0 
3.59703 3.09898 0.0 
3.672 3.08533 0.0 
3.88524 3.01121 0.0 
3.65785 3.07246 0.0 
3.85549 3.02328 0.0 
4.32879 2.97483 0.0 
4.41783 2.85539 0.0 
3.6362 3.10212 0.0 
3.64861 3.09874 0.0 
3.68676 3.07513 0.0 
3.94894 3.00048 0.0 
3.69017 3.06762 0.0 
3.92598 3.01589 0.0 
3.62815 3.09262 0.0 
3.73163 3.03939 0.0 
3.84128 3.02943 0.0 
4.09885 3.00056 0.0 
3.66798 3.07495 0.0 
3.67828 3.06264 0.0 
3.67257 3.0737 0.0 
4.35631 2.91154 0.0 
4.02732 2.94759 0.0 
3.65301 3.09307 0.0 
3.99669 2.99856 0.0 
3.83804 3.02727 0.0 
3.57749 3.11763 0.0 
4.12829 2.987 0.0 
3.63401 3.09059 0.0 
3.63529 3.08717 0.0 
3.74531 3.04677 0.0 
3.64222 3.08436 0.0 
3.93176 2.99579 0.0 
3.60604 3.09618 0.0 
3.81038 3.03468 0.0 
3.60275 3.09646 0.0 
3.56773 3.12582 0.0 
3.99686 2.99406 0.0 
3.68944 3.06567 0.0 
3.92884 3.00623 0.0 
3.55618 3.12722 0.0 
4.26482 2.96512 0.0 
4.19104 2.9912 0.0 
4.01569 2.9979 0.0 
4.43363 2.87608 0.0 
4.19068 2.99455 0.0 
4.14197 2.99754 0.0 
3.71373 3.05237 0.0 
3.62181 3.08743 0.0 
3.67837 3.07955 0.0 
4.01655 2.97035 0.0 
3.7704 3.03272 0.0 
4.27115 2.98828 0.0 
3.69306 3.07316 0.0 
4.08831 3.00608 0.0 
3.66725 3.08141 0.0 
4.24126 2.99528 0.0 
3.62547 3.09208 0.0 
3.66724 3.08479 0.0 
3.64861 3.08946 0.0 
3.64563 3.07658 0.0 
4.28176 2.96536 0.0 
4.05114 2.99912 0.0 
3.89199 2.98011 0.0 
3.96108 2.99416 0.0 
3.6804 3.06814 0.0 
3.71376 3.06064 0.0 
3.72233 3.05699 0.0 
3.73024 3.05343 0.0 
3.7468 3.05372 0.0 
3.70086 3.07047 0.0 
3.65702 3.08581 0.0 
3.90551 3.00018 0.0 
3.70267 3.06648 0.0 
3.68332 3.07924 0.0 
3.75752 3.05333 0.0 
3.61833 3.09927 0.0 
3.62583 3.09629 0.0 
3.73626 3.05256 0.0 
3.8845 3.00373 0.0 
3.6208 3.09049 0.0 
3.65829 3.08762 0.0 
4.0088 3.01382 0.0 
3.60567 3.09875 0.0 
3.6154 3.09809 0.0 
3.82178 3.03302 0.0 
3.68489 3.07429 0.0 
4.09526 2.9394 0.0 
4.23667 2.97688 0.0 
4.17354 2.99221 0.0 
4.31361 2.95797 0.0 
3.82254 3.03676 0.0 
3.67634 3.07819 0.0 
3.72586 3.05816 0.0 
3.87236 3.00515 0.0 
3.66082 3.09211 0.0 
3.70484 3.07189 0.0 
4.25214 2.9773 0.0 
3.61358 3.09173 0.0 
3.79474 3.04169 0.0 
3.71733 3.06428 0.0 
3.78894 3.02633 0.0 
3.6369 3.07854 0.0 
4.06826 2.95142 0.0 
3.73317 3.05798 0.0 
3.64696 3.09298 0.0 
3.68108 3.08656 0.0 
4.00183 2.98791 0.0 
3.63586 3.08432 0.0 
4.32141 2.98584 0.0 
4.25109 2.95481 0.0 
3.73085 3.06791 0.0 
4.04983 2.98938 0.0 
3.67925 3.08397 0.0 
3.88801 3.02708 0.0 
4.20623 2.9789 0.0 
3.73411 3.061 0.0 
3.69085 3.07799 0.0 
4.20431 2.97184 0.0 
3.74182 3.05271 0.0 
3.53797 3.15096 0.0 
3.69436 3.08057 0.0 
3.71326 3.0633 0.0 
3.70882 3.07522 0.0 
3.6371 3.08096 0.0 
3.75146 3.04666 0.0 
3.75126 3.05897 0.0 
3.61998 3.09326 0.0 
3.67336 3.0762 0.0 
3.71916 3.06806 0.0 
4.18306 2.97653 0.0 
3.72053 3.05032 0.0 
4.14223 3.00439 0.0 
4.42019 2.89991 0.0 
4.16309 2.99666 0.0 
4.19179 2.9797 0.0 
3.92136 3.00137 0.0 
4.2778 2.91768 0.0 
3.85236 3.01126 0.0 
3.97435 2.99551 0.0 
4.13201 2.98095 0.0 
3.6691 3.09072 0.0 
4.22811 2.99217 0.0 
3.76309 3.04793 0.0 
3.7555 3.02861 0.0 
3.64587 3.07909 0.0 
3.79098 3.02914 0.0 
3.84261 3.02038 0.0 
4.25627 2.99818 0.0 
4.17267 2.9968 0.0 
3.6407 3.11119 0.0 
3.58641 3.11063 0.0 
4.34716 2.9515 0.0 
3.57941 3.12025 0.0 
4.15873 2.92574 0.0 
3.77709 3.05089 0.0 
4.29402 2.98864 0.0 
4.19302 2.99739 0.0 
3.58255 3.11152 0.0 
3.6005 3.10882 0.0 
3.6639 3.06444 0.0 
4.21522 2.91565 0.0 
3.8884 3.0134 0.0 
4.11154 2.98373 0.0 
3.88845 2.99223 0.0 
3.80212 3.00733 0.0 
3.83787 3.01853 0.0 
3.87267 2.9923 0.0 
4.06142 2.9932 0.0 
4.12229 3.00145 0.0 
3.81992 3.00582 0.0 
4.24497 3.00099 0.0 
3.60942 3.12858 0.0 
3.65427 3.07235 0.0 
3.66496 3.06617 0.0 
4.13794 3.00046 0.0 
3.78309 3.04149 0.0 
3.93118 3.00219 0.0 
3.93155 2.99075 0.0 
3.55573 3.1326 0.0 
3.96289 2.98904 0.0 
3.92547 2.98117 0.0 
4.02902 2.98113 0.0 
3.54755 3.146 0.0 
4.03747 2.96204 0.0 
4.02204 2.99266 0.0 
3.90409 3.00453 0.0 
3.97694 2.9995 0.0 
4.0912 2.98091 0.0 
3.55119 3.14576 0.0 
3.85941 3.01271 0.0 
4.09307 2.98658 0.0 
4.24843 3.00644 0.0 
3.90974 3.00717 0.0 
4.08634 2.97667 0.0 
3.58208 3.12643 0.0 
3.67536 3.05941 0.0 
4.38599 2.96112 0.0 
4.22387 2.98479 0.0 
3.66905 3.09549 0.0 
4.0098 2.98037 0.0 
3.61226 3.0971 0.0 
4.137 2.94098 0.0 
4.18161 2.99924 0.0 
3.5717 3.11743 0.0 
3.55235 3.13855 0.0 
4.10801 2.99012 0.0 
3.64975 3.07879 0.0 
4.05701 2.97836 0.0 
4.04818 3.01005 0.0 
4.26693 3.01706 0.0 
3.88022 3.00879 0.0 
3.58385 3.11976 0.0 
4.16272 2.96291 0.0 
4.18739 2.99834 0.0 
3.77412 3.04124 0.0 
4.36607 2.93961 0.0 
3.59223 3.11444 0.0 
4.22668 2.9807 0.0 
3.86252 3.02465 0.0 
3.57285 3.12323 0.0 
4.20259 2.93234 0.0 
4.20632 2.99489 0.0 
4.00252 2.96356 0.0 
4.21441 2.98264 0.0 
3.57829 3.11274 0.0 
3.69014 3.06972 0.0 
4.31079 2.93055 0.0 
4.11943 3.00525 0.0 
4.19204 2.96011 0.0 
3.55339 3.15045 0.0 
4.00126 3.00932 0.0 
3.57975 3.14479 0.0 
3.88021 3.02577 0.0 
3.99777 3.00324 0.0 
3.98991 2.98143 0.0 
3.60596 3.10322 0.0 
3.96192 3.0191 0.0 
3.60011 3.12735 0.0 
3.95567 3.01408 0.0 
4.25732 2.98131 0.0 
3.60332 3.10281 0.0 
3.90218 3.02107 0.0 
3.91969 3.02239 0.0 
4.39982 2.9374 0.0 
3.58201 3.11588 0.0 
4.19611 2.99605 0.0 
4.38721 2.92939 0.0 
3.54933 3.15117 0.0 
3.54446 3.14549 0.0 
3.73377 3.04175 0.0 
4.2466 2.96356 0.0 
3.94517 2.99697 0.0 
3.69418 3.06941 0.0 
3.60566 3.12064 0.0 
3.80421 3.02294 0.0 
4.43033 2.91239 0.0 
3.81707 3.02422 0.0 
3.62374 3.11046 0.0 
3.82407 3.02499 0.0 
4.37776 2.94659 0.0 
4.22451 2.95905 0.0 
3.65439 3.08064 0.0 
3.64125 3.09301 0.0 
4.13344 2.95324 0.0 
3.59624 3.10914 0.0 
4.27704 3.0125 0.0 
3.69883 3.08468 0.0 
4.13527 2.99257 0.0 
3.59678 3.10588 0.0 
3.68732 3.09657 0.0 
3.59203 3.12032 0.0 
4.18538 2.99597 0.0 
3.5645 3.12465 0.0 
3.67671 3.07608 0.0 
4.10836 2.97026 0.0 
3.62807 3.08757 0.0 
3.55849 3.12787 0.0 
3.54845 3.13935 0.0 
3.57355 3.13128 0.0 
3.58572 3.11644 0.0 
4.21564 2.99201 0.0 
4.21452 3.00139 0.0 
3.75743 3.04714 0.0 
4.11728 2.97686 0.0 
4.26041 3.0126 0.0 
3.62923 3.08429 0.0 
3.74568 3.03608 0.0 
4.173 2.97018 0.0 
4.17266 2.99976 0.0 
4.09351 2.96398 0.0 
3.84421 3.01069 0.0 
4.22858 2.97148 0.0 
4.18097 2.99743 0.0 
4.21948 2.97708 0.0 
3.90962 2.99517 0.0 
3.59691 3.1032 0.0 
4.25259 2.99264 0.0 
3.65588 3.08398 0.0 
3.68356 3.0729 0.0 
3.58719 3.10507 0.0 
3.59009 3.10961 0.0 
3.7038 3.06284 0.0 
3.96023 2.9798 0.0 
3.68251 3.07136 0.0 
3.66489 3.07929 0.0 
3.53913 3.15342 0.0 
3.82173 3.01864 0.0 
3.55931 3.1402 0.0 
3.69796 3.06422 0.0 
4.22595 2.9941 0.0 
3.56622 3.13363 0.0 
3.5734 3.11869 0.0 
4.17617 2.95212 0.0 
3.73063 3.05081 0.0 
3.81862 3.01604 0.0 
3.95195 2.9876 0.0 
4.15942 3.00269 0.0 
4.06609 2.98287 0.0 
3.89711 2.99514 0.0 
3.58919 3.11233 0.0 
3.68387 3.09065 0.0 
4.16259 2.99958 0.0 
4.15151 2.99682 0.0 
3.67274 3.10002 0.0 
4.20037 2.99538 0.0 
3.59207 3.10441 0.0 
4.34303 2.98896 0.0 
4.30177 2.97381 0.0 
4.21643 2.98679 0.0 
4.3998 2.96525 0.0 
3.56586 3.12008 0.0 
4.18062 2.98378 0.0 
4.22403 2.9898 0.0 
4.24013 3 0.0 
3.55018 3.13492 0.0 
3.62492 3.10502 0.0 
4.03724 2.99564 0.0 
3.66021 3.07896 0.0 
4.16786 2.9853 0.0 
3.7751 3.04707 0.0 
3.54134 3.14467 0.0 
4.06256 2.96284 0.0 
4.42023 2.94109 0.0 
3.86308 3.01555 0.0 
4.39336 2.97468 0.0 
3.61099 3.14184 0.0 
3.68811 3.05741 0.0 
3.53322 3.1572 0.0 
3.90271 3.0173 0.0 
4.4181 2.92359 0.0 
3.76366 3.02919 0.0 
4.15013 2.98412 0.0 
3.80476 3.01897 0.0 
3.61475 3.0931 0.0 
3.65417 3.0698 0.0 
4.30078 2.96702 0.0 
3.54184 3.14106 0.0 
4.33438 3.0108 0.0 
4.10608 3.01438 0.0 
3.68783 3.06251 0.0 
4.30004 3.02516 0.0 
3.58787 3.11982 0.0 
3.64082 3.09075 0.0 
4.33229 2.96394 0.0 
4.30886 3.01559 0.0 
4.07185 2.98657 0.0 
4.23057 2.98657 0.0 
3.84734 3.03162 0.0 
4.2014 2.965 0.0 
3.56033 3.1309 0.0 
4.28583 3.0188 0.0 
4.04004 3.00461 0.0 
3.68117 3.06983 0.0 
3.68265 3.06462 0.0 
3.88192 3.02073 0.0 
3.87493 3.01915 0.0 
4.14082 2.96982 0.0 
3.6348 3.0994 0.0 
4.17694 2.99492 0.0 
3.80126 3.03544 0.0 
4.2349 2.98898 0.0 
3.94959 3.00971 0.0 
4.33956 2.99908 0.0 
3.64404 3.11914 0.0 
4.27502 2.98111 0.0 
3.71937 3.04162 0.0 
3.573 3.12685 0.0 
3.98326 2.98811 0.0 
4.30459 2.99507 0.0 
3.65497 3.10002 0.0 
3.86851 3.00287 0.0 
4.23898 2.98211 0.0 
3.59378 3.13854 0.0 
4.31601 2.99785 0.0 
4.17948 2.98939 0.0 
4.24099 2.99005 0.0 
3.67531 3.06969 0.0 
3.7154 3.05576 0.0 
3.57751 3.12541 0.0 
3.60852 3.10472 0.0 
4.18325 2.99318 0.0 
4.26414 2.99304 0.0 
4.26918 3.00151 0.0 
4.19549 2.99357 0.0 
4.09575 2.99522 0.0 
3.74335 3.02998 0.0 
4.27551 2.94515 0.0 
3.65804 3.10577 0.0 
3.60646 3.13648 0.0 
3.66326 3.11339 0.0 
4.13487 2.96215 0.0 
4.04396 2.97286 0.0 
4.24987 2.93642 0.0 
4.20214 2.98309 0.0 
3.638 3.10638 0.0 
3.61139 3.10632 0.0 
4.32648 2.94421 0.0 
4.26134 3.00539 0.0 
3.78448 3.02418 0.0 
4.27471 2.99321 0.0 
4.11297 2.99659 0.0 
3.62487 3.12396 0.0 
3.75849 3.03526 0.0 
4.36654 2.95674 0.0 
4.12577 2.99517 0.0 
3.62142 3.11712 0.0 
4.08403 2.99152 0.0 
4.15336 2.99311 0.0 
3.64653 3.07296 0.0 
4.19968 2.99243 0.0 
3.60471 3.11344 0.0 
3.68875 3.06389 0.0 
4.07727 2.97216 0.0 
4.35636 2.96776 0.0 
3.912 2.97869 0.0 
3.59957 3.11256 0.0 
4.30463 2.87581 0.0 
4.29181 3.00119 0.0 
3.83185 3.0176 0.0 
4.23377 2.99613 0.0 
4.19234 2.98661 0.0 
4.31925 3.00639 0.0 
4.29734 3.00871 0.0 
4.07583 2.9972 0.0 
4.28975 2.99463 0.0 
4.21376 2.98957 0.0 
4.27248 2.99688 0.0 
4.27601 3.00722 0.0 
4.04031 2.98539 0.0 
4.29894 2.98217 0.0 
3.70165 3.05015 0.0 
3.85615 2.99236 0.0 
4.37541 2.97154 0.0 
4.25179 2.99015 0.0 
4.14549 2.98938 0.0 
4.20608 2.98713 0.0 
3.62725 3.13457 0.0 
3.77212 3.01718 0.0 
3.53816 3.17738 0.0 
4.24327 2.98585 0.0 
3.80597 3.015 0.0 
3.78891 3.01864 0.0 
3.57585 3.13414 0.0 
4.21279 2.99458 0.0 
4.28354 2.95622 0.0 
4.25419 3.00266 0.0 
[...]
<PointData>
  <DataArray type = "Float64" Name="Vitesse" NumberOfComponents="3" format="ascii">
0.0432864 0.00279354 0.0 
0.165443 0.0989853 0.0 
0.0947784 0.0763848 0.0 
0.0322237 -0.121995 0.0 
-0.0667286 -0.0669158 0.0 
0.0206369 -0.110667 0.0 
0.0553057 -0.117333 0.0 
-0.0145021 -0.102218 0.0 
0.109796 0.171648 0.0 
0.999447 -0.049006 0.0 
-0.0689707 -0.0790317 0.0 
-0.0724456 -0.0748757 0.0 
-0.0491799 -0.0658302 0.0 
0.022287 -0.124292 0.0 
-0.0134702 -0.0759609 0.0 
-0.0313111 -0.109772 0.0 
-0.0327127 -0.0973646 0.0 
0.15523 -0.129456 0.0 
-0.027347 -0.097998 0.0 
-0.0211821 -0.153501 0.0 
-0.0107459 -0.0877878 0.0 
0.0892957 -0.117767 0.0 
-0.0139344 -0.0839444 0.0 
0.580184 0.0863102 0.0 
0.581821 -0.197607 0.0 
-0.0686122 -0.0750348 0.0 
0.004913 -0.137488 0.0 
-0.0151208 -0.100496 0.0 
-0.0244919 -0.0831173 0.0 
0.0649107 -0.136789 0.0 
-0.0354782 -0.094869 0.0 
-0.0152604 -0.102347 0.0 
0.01421 -0.0854787 0.0 
-0.0131035 -0.100043 0.0 
0.0761672 -0.126894 0.0 
0.0169063 -0.117453 0.0 
-0.0185781 -0.0951171 0.0 
0.0300714 -0.122778 0.0 
-0.02741 -0.0763504 0.0 
0.0291936 -0.139508 0.0 
0.00456885 -0.0823128 0.0 
0.00590778 -0.115502 0.0 
-0.0132687 -0.0748174 0.0 
0.239239 0.0769863 0.0 
0.0616859 -0.0535339 0.0 
0.00200129 -0.143569 0.0 
0.73811 0.0115893 0.0 
0.0399517 -0.0553473 0.0 
0.00242205 -0.128129 0.0 
0.0577832 -0.0964699 0.0 
0.0414144 -0.129462 0.0 
-0.0562442 -0.0669424 0.0 
0.229247 -0.159816 0.0 
0.075627 -0.109729 0.0 
0.0757687 0.102564 0.0 
-0.0487524 -0.0640753 0.0 
-0.0438362 -0.153975 0.0 
-0.0496867 -0.0748623 0.0 
0.0428619 0.0480782 0.0 
-0.0218331 -0.102615 0.0 
-0.0620136 -0.0708279 0.0 
-0.0554029 -0.0818207 0.0 
0.0610719 -0.1259 0.0 
0.222355 0.10228 0.0 
-0.0116624 -0.15186 0.0 
0.417843 -0.197898 0.0 
0.0541352 -0.132137 0.0 
0.0108804 -0.088438 0.0 
-0.017013 -0.0723067 0.0 
-0.0103535 -0.0746961 0.0 
-0.00193544 -0.0780055 0.0 
-0.0292099 -0.0735037 0.0 
-0.04675 -0.0635842 0.0 
-0.0535258 -0.078746 0.0 
0.0782447 -0.123273 0.0 
-0.0315509 -0.0679554 0.0 
-0.059603 -0.0639954 0.0 
-0.0372823 -0.0742189 0.0 
-0.0436122 -0.0926295 0.0 
-0.0458613 -0.0918546 0.0 
-0.00813144 -0.0771631 0.0 
0.0848063 -0.123491 0.0 
0.00941379 -0.116228 0.0 
-0.0605086 -0.0755918 0.0 
-0.0493051 -0.136886 0.0 
-0.00559644 -0.107212 0.0 
-0.0308781 -0.098072 0.0 
-0.0232116 -0.0961656 0.0 
-0.0431546 -0.0682591 0.0 
0.618458 -0.161241 0.0 
0.164806 0.0357542 0.0 
0.0484218 -0.0845748 0.0 
0.241613 0.135267 0.0 
-0.0365345 -0.0928103 0.0 
-0.0486974 -0.0703161 0.0 
-0.0233268 -0.0712529 0.0 
0.0972725 -0.126262 0.0 
-0.0715282 -0.0706387 0.0 
-0.0543431 -0.0614928 0.0 
0.156491 0.0645279 0.0 
0.030007 -0.124594 0.0 
-0.0301067 -0.0879542 0.0 
-0.040553 -0.0656041 0.0 
0.0867467 -0.117857 0.0 
0.0830902 -0.139291 0.0 
0.443335 -0.170865 0.0 
-0.0317591 -0.0700252 0.0 
-0.0643238 -0.0792688 0.0 
-0.0709747 -0.0622562 0.0 
0.0687239 -0.144077 0.0 
0.0104808 -0.112079 0.0 
0.0555322 0.17344 0.0 
0.337997 0.0472165 0.0 
-0.0559241 -0.0643627 0.0 
0.0397058 -0.153324 0.0 
-0.0675459 -0.0635414 0.0 
-0.0467453 -0.0990282 0.0 
0.153348 -0.0226222 0.0 
-0.0435376 -0.0672467 0.0 
-0.061149 -0.0612467 0.0 
0.210348 -0.0260745 0.0 
-0.0181058 -0.075366 0.0 
-0.0108403 -0.0544449 0.0 
-0.0663222 -0.0598422 0.0 
-0.0309314 -0.0681522 0.0 
-0.0617325 -0.0603278 0.0 
0.0452225 -0.124544 0.0 
0.00177663 -0.0831169 0.0 
-0.0474395 -0.0703452 0.0 
-0.0128304 -0.106793 0.0 
-0.0334935 -0.0768432 0.0 
-0.0522853 -0.0630912 0.0 
0.167001 -0.0629191 0.0 
0.0551315 -0.0954496 0.0 
-0.033936 -0.130276 0.0 
0.532475 0.0779283 0.0 
0.0160305 -0.102562 0.0 
0.14418 -0.0489399 0.0 
0.0436298 -0.118968 0.0 
0.694312 0.0337144 0.0 
0.0788478 -0.122671 0.0 
0.034105 -0.133289 0.0 
0.112059 -0.131614 0.0 
-0.072835 -0.0665739 0.0 
0.0616757 0.0208436 0.0 
-0.0228121 -0.079475 0.0 
0.203166 -0.147503 0.0 
0.0274688 -0.113129 0.0 
0.0521274 -0.108692 0.0 
0.0199329 -0.10886 0.0 
0.0251433 0.0794124 0.0 
0.0191097 -0.0880633 0.0 
-0.067578 -0.0755451 0.0 
-0.0187034 -0.091305 0.0 
0.243116 0.158532 0.0 
-0.0344156 -0.0768417 0.0 
0.758974 -0.116107 0.0 
-0.0433425 -0.0787446 0.0 
0.0612583 0.139029 0.0 
0.0233026 -0.0518698 0.0 
-0.0111838 -0.0935934 0.0 
-0.0433576 -0.0856831 0.0 
0.148437 -0.148264 0.0 
0.825943 -0.0524935 0.0 
0.00258778 -0.107314 0.0 
0.0841123 -0.146954 0.0 
0.216306 -0.151789 0.0 
0.330094 -0.188648 0.0 
0.0421159 -0.113636 0.0 
0.272636 -0.166154 0.0 
0.0164666 -0.154079 0.0 
-0.0235916 -0.144615 0.0 
0.264555 -0.168212 0.0 
0.0111363 0.0561655 0.0 
-0.0474263 -0.0747684 0.0 
0.0763775 -0.12699 0.0 
0.111071 -0.133622 0.0 
-0.0151005 -0.133155 0.0 
-0.0173257 -0.087519 0.0 
0.0275519 -0.119329 0.0 
0.126067 -0.135024 0.0 
-0.0230313 -0.0689803 0.0 
0.0941865 -0.137954 0.0 
0.265181 -0.160439 0.0 
0.108253 -0.153471 0.0 
-0.0184141 -0.0592258 0.0 
0.321813 -0.165306 0.0 
0.0278062 -0.146841 0.0 
0.0434231 -0.116675 0.0 
0.00896583 -0.131438 0.0 
0.100159 -0.153169 0.0 
-0.0187652 -0.0615721 0.0 
0.0506543 -0.116349 0.0 
0.0589955 -0.153057 0.0 
-0.0162547 0.0636785 0.0 
0.0177423 -0.112775 0.0 
0.136363 -0.153135 0.0 
-0.0418695 -0.0697233 0.0 
0.163045 -0.147016 0.0 
0.118558 0.195631 0.0 
0.110255 0.0119701 0.0 
-0.0746016 -0.0662376 0.0 
0.127159 -0.150462 0.0 
-0.0158321 -0.104282 0.0 
0.560112 -0.125283 0.0 
0.00823617 -0.0736663 0.0 
-0.00920314 -0.0898728 0.0 
-0.0239607 -0.0636374 0.0 
0.0376084 -0.151071 0.0 
0.0140373 -0.106162 0.0 
0.122629 -0.155703 0.0 
-0.0499377 -0.148952 0.0 
-0.0624916 0.101793 0.0 
0.0463214 -0.115458 0.0 
-0.0400771 -0.0749164 0.0 
0.287542 -0.0909242 0.0 
0.0156495 -0.0629967 0.0 
-0.00381685 -0.0881076 0.0 
0.302447 0.151234 0.0 
-0.0428781 -0.0796016 0.0 
0.13911 0.0173783 0.0 
-0.0268451 -0.100028 0.0 
-0.0302523 -0.0769141 0.0 
0.627436 -0.0463111 0.0 
0.0422295 -0.0246693 0.0 
0.351613 -0.17363 0.0 
0.125264 -0.00687514 0.0 
-0.00398215 -0.0956647 0.0 
-0.0275747 -0.0713842 0.0 
0.491269 0.091427 0.0 
-0.0415106 -0.146526 0.0 
0.316625 -0.0465695 0.0 
-0.0153284 -0.0611637 0.0 
-0.0360947 -0.135532 0.0 
-0.0273898 -0.0649741 0.0 
-0.0412852 -0.0987525 0.0 
-0.0156923 -0.136184 0.0 
0.134498 -0.147906 0.0 
-0.0345824 -0.0935753 0.0 
-0.0476189 -0.120109 0.0 
-0.0469792 -0.0735769 0.0 
-0.035793 -0.119292 0.0 
0.125473 0.0750609 0.0 
-0.0259414 -0.0967125 0.0 
-0.0378179 -0.102493 0.0 
-0.0448321 -0.106319 0.0 
0.251979 0.158588 0.0 
-0.0282248 -0.082844 0.0 
0.0324667 -0.0453722 0.0 
0.342073 0.137516 0.0 
-0.0136933 -0.0594134 0.0 
-0.0180808 -0.057868 0.0 
0.108038 -0.113531 0.0 
0.2664 0.0476998 0.0 
0.0496046 -0.127012 0.0 
-0.0333055 -0.06846 0.0 
-0.053659 -0.0762935 0.0 
0.0780432 -0.118543 0.0 
0.39064 0.111062 0.0 
0.0360395 -0.109734 0.0 
-0.0646379 -0.0788928 0.0 
0.0174403 -0.106191 0.0 
0.228045 0.169153 0.0 
0.318398 0.0076564 0.0 
-0.018413 -0.0924765 0.0 
-0.0588408 -0.0833895 0.0 
0.395506 -0.125271 0.0 
-0.0365015 -0.0870715 0.0 
-0.0451801 0.120721 0.0 
-0.0688853 -0.059912 0.0 
0.029581 -0.133406 0.0 
-0.0241429 -0.0946212 0.0 
-0.0701882 -0.0631524 0.0 
-0.0477019 -0.0738907 0.0 
0.0293047 -0.0659048 0.0 
-0.0192304 -0.0793115 0.0 
-0.0390842 -0.0732694 0.0 
0.200861 -0.143197 0.0 
0.00861752 -0.114453 0.0 
-0.0181782 -0.0746685 0.0 
-0.0221061 -0.0614877 0.0 
-0.0362859 -0.0685054 0.0 
-0.0370027 -0.0789676 0.0 
0.0618757 -0.00509513 0.0 
0.00601722 -0.0089754 0.0 
-0.0113183 -0.0809694 0.0 
0.142572 -0.142282 0.0 
-0.0442252 0.0886788 0.0 
0.0423753 -0.12754 0.0 
0.134197 -0.123642 0.0 
0.21861 -0.0775348 0.0 
0.0017234 -0.0890868 0.0 
0.263935 -0.149493 0.0 
0.10551 -0.128888 0.0 
0.20861 0.0186746 0.0 
0.0187044 -0.0741819 0.0 
0.166558 0.00280956 0.0 
0.121215 -0.131827 0.0 
-0.00853768 -0.102772 0.0 
0.0567962 0.0709096 0.0 
-0.0432433 -0.0829695 0.0 
-0.0339114 -0.0716983 0.0 
0.0169359 -0.111398 0.0 
-0.0237841 -0.0904801 0.0 
-0.0112539 -0.0742269 0.0 
0.196748 -0.153771 0.0 
-0.0219809 -0.0760543 0.0 
-0.0349023 -0.0812225 0.0 
-0.0092333 -0.0534376 0.0 
0.076575 -0.120348 0.0 
-0.0256335 -0.0658714 0.0 
-0.00742061 -0.0760916 0.0 
0.0498019 0.0163514 0.0 
-0.031207 -0.0691813 0.0 
-0.018483 -0.0850861 0.0 
0.405028 -0.0737113 0.0 
0.0174845 -0.0839579 0.0 
0.115455 -0.129471 0.0 
0.124463 -0.140433 0.0 
-0.0198477 -0.109978 0.0 
0.08433 -0.155186 0.0 
0.150698 -0.137416 0.0 
-0.0324164 -0.0845964 0.0 
-0.0725538 -0.0618141 0.0 
-0.0013272 -0.104347 0.0 
0.0102391 -0.11752 0.0 
-0.0731783 -0.0658352 0.0 
0.0378025 -0.0368175 0.0 
0.000779981 -0.105259 0.0 
0.0221621 0.199227 0.0 
0.143529 0.138518 0.0 
0.0964737 -0.00294426 0.0 
0.0754234 0.206851 0.0 
-0.00606864 -0.0878794 0.0 
0.109572 -0.0694955 0.0 
0.076607 0.0125459 0.0 
0.0165259 0.0459174 0.0 
-0.0210114 -0.0649651 0.0 
-0.0648731 -0.0818406 0.0 
0.00719339 -0.149803 0.0 
-0.021881 -0.0883624 0.0 
0.0943608 -0.0911633 0.0 
-0.0312293 -0.0812115 0.0 
-0.0167871 -0.0577665 0.0 
0.287378 -0.163123 0.0 
0.18551 0.169846 0.0 
0.0213029 -0.110269 0.0 
0.0362615 0.21692 0.0 
-0.034774 -0.0730146 0.0 
0.114245 -0.122044 0.0 
-0.00281736 -0.0509023 0.0 
-0.0259246 -0.1043 0.0 
0.321756 0.134369 0.0 
0.149437 -0.131363 0.0 
0.0947781 -0.113636 0.0 
0.123303 -0.130645 0.0 
0.00918753 -0.115761 0.0 
0.11795 -0.142673 0.0 
0.190383 0.129337 0.0 
-0.0181972 -0.0602503 0.0 
-0.0582276 0.205076 0.0 
-0.0737584 -0.149919 0.0 
0.0441383 -0.0968479 0.0 
-0.0929403 0.161794 0.0 
-0.0442886 -0.0741546 0.0 
-0.0497376 -0.0870701 0.0 
0.174687 0.162257 0.0 
-0.0641975 0.173398 0.0 
0.05705 -0.155013 0.0 
0.0974987 0.0257208 0.0 
-0.0388019 -0.0960973 0.0 
0.270064 -0.0305606 0.0 
-0.024869 -0.0718925 0.0 
-0.0704546 0.13728 0.0 
-0.0314921 -0.148578 0.0 
-0.00698078 -0.0817916 0.0 
0.0405395 -0.0978851 0.0 
-0.0262649 -0.101623 0.0 
-0.0140315 -0.103363 0.0 
0.214086 -0.117984 0.0 
-0.0657966 -0.0813837 0.0 
0.0325404 -0.0801643 0.0 
-0.0109871 -0.0947408 0.0 
0.0818145 0.0347136 0.0 
-0.0209085 -0.118863 0.0 
-0.0188237 0.203579 0.0 
-0.0605448 -0.0745968 0.0 
0.117606 0.105505 0.0 
0.191603 -0.142524 0.0 
-0.0345937 -0.0723514 0.0 
0.0806697 -0.140803 0.0 
0.0217278 0.158173 0.0 
-0.0738949 -0.0718346 0.0 
0.132955 -0.134194 0.0 
0.126483 0.0414918 0.0 
-0.0350465 -0.0700953 0.0 
0.00175366 0.175534 0.0 
0.0695664 -0.0740156 0.0 
0.0742142 0.0469611 0.0 
0.0137026 -0.0922304 0.0 
0.0161306 -0.0826656 0.0 
-0.0382279 -0.0716165 0.0 
-0.0447074 -0.0890914 0.0 
0.0460639 -0.0687976 0.0 
0.05043 0.0918789 0.0 
0.00522654 0.104353 0.0 
0.0477984 -0.0458723 0.0 
0.00553673 -0.153971 0.0 
0.255093 -0.164136 0.0 
0.399804 0.071724 0.0 
-0.071383 -0.0706149 0.0 
-0.0391414 -0.0732547 0.0 
-0.0648528 -0.0705933 0.0 
0.290978 -0.123785 0.0 
0.180188 -0.158956 0.0 
0.518453 0.0243608 0.0 
0.121259 -0.0307009 0.0 
-0.0698876 -0.077076 0.0 
-0.0531157 -0.0854225 0.0 
0.33496 0.130272 0.0 
-0.0121383 0.0897116 0.0 
0.129177 -0.12915 0.0 
0.0458289 0.110756 0.0 
0.000145699 -0.149182 0.0 
-0.0544752 -0.0763219 0.0 
0.0890952 -0.111272 0.0 
0.175825 0.179359 0.0 
0.0108637 -0.140886 0.0 
-0.0603006 -0.0777572 0.0 
0.0257613 -0.155058 0.0 
0.0340588 -0.11392 0.0 
0.11247 -0.144997 0.0 
0.0563449 -0.0374572 0.0 
-0.0545606 -0.0798393 0.0 
0.0245677 -0.0895159 0.0 
0.179661 -0.154177 0.0 
0.120088 0.188073 0.0 
0.356312 -0.180347 0.0 
-0.0488593 -0.0808646 0.0 
1.09802 -0.0426751 0.0 
-0.000691746 0.142472 0.0 
0.0629235 -0.118159 0.0 
0.0381179 0.0325515 0.0 
0.0935506 -0.049643 0.0 
-0.0351555 0.184006 0.0 
-0.0353786 0.154219 0.0 
-0.00548004 -0.155133 0.0 
0.0315371 0.135876 0.0 
0.0776307 -0.00869364 0.0 
0.0276865 0.108273 0.0 
-0.0227815 0.117798 0.0 
0.0701882 -0.152921 0.0 
0.0941653 0.142085 0.0 
0.153085 -0.131453 0.0 
0.342996 -0.184404 0.0 
0.0742593 0.204922 0.0 
0.0718425 0.0685516 0.0 
0.0551868 -0.121244 0.0 
0.0930026 -0.0238641 0.0 
-0.0441484 -0.075027 0.0 
0.321573 -0.187718 0.0 
0.0139767 -0.0454995 0.0 
0.100292 0.0507273 0.0 
0.174903 -0.144448 0.0 
0.192537 -0.14851 0.0 
-0.0360642 -0.0667747 0.0 
0.0453945 -0.0113254 0.0 
0.293541 0.096139 0.0 
0.00209445 0.075347 0.0 
0.0203983 -0.0841891 0.0 
-0.0247608 -0.127484 0.0 
-0.0150868 -0.0964127 0.0 
0.129697 -0.134294 0.0 
0.0685371 0.194687 0.0 
-0.011488 0.00212734 0.0 
0.0271867 -0.0867881 0.0 
-0.0274499 0.0872251 0.0 
0.0624278 -0.0231046 0.0 
-0.084299 0.189412 0.0 
0.168547 0.181247 0.0 
0.0988587 -0.1128 0.0 
-0.0367299 -0.0984189 0.0 
-0.0605871 -0.0842251 0.0 
0.125973 -0.1252 0.0 
0.170096 -0.143253 0.0 
0.151127 -0.112611 0.0 
0.0224845 -0.098358 0.0 
-0.00151133 0.0562608 0.0 
0.137982 -0.0900823 0.0 
-0.0353339 -0.0661269 0.0 
0.19594 0.0638851 0.0 
-0.0300238 -0.0664637 0.0 
0.0540913 -0.0973398 0.0 
-0.0262869 -0.066931 0.0 
-0.0314689 -0.0728388 0.0 
-0.00466884 -0.108746 0.0 
0.0150129 -0.105113 0.0 
0.186783 -0.148097 0.0 
-0.0183633 -0.0652549 0.0 
0.0122976 -0.0903948 0.0 
0.000227647 -0.122169 0.0 
0.945405 -0.00932888 0.0 
-0.016775 -0.144838 0.0 
0.0455766 -0.110818 0.0 
0.142063 -0.125151 0.0 
0.0462103 -0.0968773 0.0 
0.0154382 -0.083831 0.0 
-0.0260639 -0.0643505 0.0 
0.096001 -0.109161 0.0 
0.382172 -0.146873 0.0 
0.0341586 -0.0977044 0.0 
-0.0531575 0.147037 0.0 
-0.0541774 -0.0877737 0.0 
0.0262839 0.0478686 0.0 
0.00174993 -0.106191 0.0 
0.0790577 -0.104582 0.0 
0.0583442 -0.147553 0.0 
0.14472 -0.135553 0.0 
0.0393254 0.066216 0.0 
-0.0127922 -0.105152 0.0 
0.101737 -0.111166 0.0 
0.232788 -0.159551 0.0 
0.0128912 -0.103041 0.0 
0.0484534 -0.107481 0.0 
0.0946933 -0.124207 0.0 
0.0650913 -0.101451 0.0 
0.0084355 -0.098449 0.0 
0.0823362 -0.10908 0.0 
-0.0375017 -0.0685489 0.0 
0.0856861 -0.106597 0.0 
0.0594041 -0.0974841 0.0 
0.0489557 -0.0936927 0.0 
0.0546183 -0.104621 0.0 
0.0309518 -0.0939741 0.0 
-0.059512 -0.0835559 0.0 
0.973229 -0.0356514 0.0 
0.84265 0.0211055 0.0 
0.00881868 -0.101187 0.0 
0.0311126 0.212938 0.0 
0.428594 0.113543 0.0 
0.728339 0.0415654 0.0 
-0.0102153 -0.0744022 0.0 
-0.0030282 -0.101304 0.0 
-0.0426941 -0.0859975 0.0 
-0.0259569 -0.0639623 0.0 
0.0358956 -0.107244 0.0 
-0.0207904 -0.0634344 0.0 
-0.0427144 -0.0690428 0.0 
-0.0432536 -0.0693246 0.0 
0.254727 0.00353365 0.0 
0.0256812 -0.0880006 0.0 
0.00898605 -0.0805748 0.0 
0.0469063 -0.103028 0.0 
0.41196 0.124787 0.0 
0.186769 -0.145782 0.0 
-0.0509371 -0.074864 0.0 
-0.0513376 -0.0885381 0.0 
0.405547 0.00421404 0.0 
0.117082 -0.117803 0.0 
0.0401868 -0.0923321 0.0 
0.0540382 0.0380435 0.0 
0.320415 -0.173528 0.0 
0.497339 -0.0291922 0.0 
6.61212e-05 -0.104946 0.0 
0.00402888 -0.0954968 0.0 
-0.00883328 -0.0548023 0.0 
0.485315 -0.0921859 0.0 
0.0610766 -0.101154 0.0 
0.450902 -0.194558 0.0 
0.040513 -0.0913836 0.0 
0.0742977 -0.0390166 0.0 
0.0127513 -0.0954465 0.0 
-0.0271674 -0.154498 0.0 
0.174391 -0.151446 0.0 
-0.0593639 -0.0798763 0.0 
-0.0595854 -0.0850773 0.0 
-0.03416 -0.0903283 0.0 
-0.00972075 -0.128519 0.0 
-0.0365838 -0.0922039 0.0 
-0.0145334 -0.112223 0.0 
-0.0252838 -0.0782663 0.0 
-2.0523e-14 2.38278e-14 0.0 
0.00842939 -0.0458774 0.0 
-2.66917e-16 2.97707e-16 0.0 
-3.71444e-14 4.38277e-14 0.0 
0.0199281 -0.023727 0.0 
0.00468287 -0.0476221 0.0 
-0.00444493 -0.0536313 0.0 
-0.0081544 -0.0612986 0.0 
0.0073867 -0.0529521 0.0 
-1.64697e-14 1.9204e-14 0.0 
0.0201126 -0.00792456 0.0 
0.00130755 -0.00104024 0.0 
-0.000989825 -0.0621034 0.0 
0.0195898 -0.0230569 0.0 
0.00211003 -0.0722965 0.0 
-6.22747e-15 7.16352e-15 0.0 
-2.53755e-14 2.80069e-14 0.0 
0.00423116 0.0438283 0.0 
0.00688179 -0.0609065 0.0 
-1.65797e-15 1.80169e-15 0.0 
-0.00618184 -0.0565838 0.0 
-1.52246e-14 1.65808e-14 0.0 
0.0165751 -0.0633255 0.0 
-3.33066e-14 4.03795e-14 0.0 
-0.00168517 -0.0497658 0.0 
-3.97316e-14 4.5313e-14 0.0 
2.53764e-31 -2.88462e-31 0.0 
-5.2011e-15 5.65601e-15 0.0 
0.0144237 -0.0401973 0.0 
0.00419008 -0.0907051 0.0 
0.014988 -0.036139 0.0 
-4.87378e-14 5.34382e-14 0.0 
-5.42814e-14 6.05131e-14 0.0 
-0.00972393 -0.0728081 0.0 
-9.68719e-15 1.05293e-14 0.0 
0.0144778 -0.0563215 0.0 
-3.69159e-14 4.12128e-14 0.0 
2.08193e-31 -2.32485e-31 0.0 
-0.00263704 -0.0667877 0.0 
0.00163885 -0.054337 0.0 
0.0304791 -0.0418839 0.0 
-0.0101849 -0.0659044 0.0 
-5.58272e-15 6.2144e-15 0.0 
0.00617762 -0.0831128 0.0 
-7.64966e-17 8.77577e-17 0.0 
0.0151214 -0.0163167 0.0 
-0.0150457 -0.0632357 0.0 
0.00975589 -0.0116528 0.0 
0.0133694 -0.0191298 0.0 
0.0268473 -0.0419885 0.0 
0.000436833 -0.00015468 0.0 
-4.95484e-14 6.02374e-14 0.0 
0.055291 -0.135441 0.0 
0.016849 -0.103462 0.0 
0.0258321 -0.0627487 0.0 
-0.00941033 -0.0702014 0.0 
-0.00170821 -0.0760319 0.0 
-0.0145357 -0.0661309 0.0 
7.7592e-07 -2.74748e-07 0.0 
2.3749e-31 -2.61168e-31 0.0 
0.0127212 -0.0177298 0.0 
0.000863667 -0.000500847 0.0 
2.44185e-31 -2.63509e-31 0.0 
-4.52235e-14 5.32668e-14 0.0 
0.0205062 -0.0376096 0.0 
-3.05313e-14 3.32168e-14 0.0 
2.38064e-06 -2.67673e-06 0.0 
-9.55899e-16 1.03755e-15 0.0 
-0.0122888 -0.0957574 0.0 
0.00989411 -0.0126327 0.0 
0.000132714 -0.000189896 0.0 
-0.00632914 -0.0726015 0.0 
0.401687 -0.246556 0.0 
-0.110785 -0.0882213 0.0 
0.632301 -0.403595 0.0 
0.728368 -0.447871 0.0 
-0.0547033 -0.0778701 0.0 
0.447169 -0.335454 0.0 
0.508827 -0.35709 0.0 
0.246958 -0.165035 0.0 
0.616308 -0.254055 0.0 
0.29762 -0.250119 0.0 
0.523258 -0.239001 0.0 
0.315685 -0.264264 0.0 
0.0339963 -0.0156457 0.0 
0.284558 -0.233722 0.0 
0.530661 -0.392002 0.0 
0.0450448 -0.0792723 0.0 
0.0306016 0.173658 0.0 
0.651876 -0.40331 0.0 
0.0969962 -0.0172692 0.0 
0.012732 -0.0447924 0.0 
-0.0304059 -0.078165 0.0 
0.460541 -0.233275 0.0 
0.138156 -0.158492 0.0 
0.0137619 -0.0577655 0.0 
-0.012751 -0.0462895 0.0 
0.320394 -0.196611 0.0 
-0.0104527 -0.0646362 0.0 
0.140926 -0.0688286 0.0 
0.286055 -0.208198 0.0 
0.184474 -0.0503552 0.0 
0.373335 -0.258399 0.0 
0.483136 -0.312951 0.0 
0.0147065 -0.0330866 0.0 
0.0347073 -0.0772557 0.0 
0.46608 -0.280383 0.0 
0.0279856 -0.0364807 0.0 
0.366754 -0.207032 0.0 
0.792495 -0.348075 0.0 
0.76026 -0.297803 0.0 
0.387069 -0.210257 0.0 
0.428781 -0.208692 0.0 
0.309759 -0.183546 0.0 
0.179739 -0.143277 0.0 
0.801942 -0.170467 0.0 
1.22278 -1.03186 0.0 
0.0203385 -0.0364286 0.0 
0.0255612 -0.0219163 0.0 
-0.162513 0.114536 0.0 
0.353182 -0.266765 0.0 
1.39166 -0.609298 0.0 
0.711374 -0.406129 0.0 
0.451829 -0.312035 0.0 
1.49065 -0.740718 0.0 
1.52312 -0.674732 0.0 
0.111258 -0.0650603 0.0 
0.0248891 -0.0641853 0.0 
0.0394908 -0.129309 0.0 
0.00792199 0.000422726 0.0 
0.254291 -0.21765 0.0 
0.198245 -0.174896 0.0 
1.30445 -0.323171 0.0 
0.482668 -0.328388 0.0 
0.209176 -0.091757 0.0 
0.00464125 -0.056499 0.0 
-0.0584741 -0.00436125 0.0 
0.951959 -0.279916 0.0 
0.873716 -0.537637 0.0 
0.488676 -0.263184 0.0 
-0.0167514 0.00605554 0.0 
0.184434 -0.183467 0.0 
0.374597 -0.271442 0.0 
0.758384 -0.488847 0.0 
0.0256875 -0.0175564 0.0 
-0.161797 -0.106565 0.0 
1.3775 -0.538066 0.0 
0.0239723 -0.0169784 0.0 
0.469574 -0.319019 0.0 
1.60409 -0.264764 0.0 
-0.0797104 -0.102585 0.0 
0.0936837 -0.246488 0.0 
1.02225 -0.429676 0.0 
0.843152 -0.289436 0.0 
1 0 0.0 
0.0548531 -0.0767083 0.0 
1.21724 -0.367456 0.0 
0.139493 0.0116709 0.0 
0.522681 -0.265816 0.0 
0.0541846 -0.10112 0.0 
0.556737 -0.26915 0.0 
0.269404 -0.230172 0.0 
1.04273 -0.338718 0.0 
0.5847 -0.411849 0.0 
1.03481 -0.200988 0.0 
-0.0185802 -0.0719587 0.0 
0.271856 -0.165274 0.0 
0.0672258 -0.0408963 0.0 
0.264249 -0.227015 0.0 
-0.125537 -0.0256661 0.0 
0.324449 -0.244272 0.0 
0.681662 -0.347532 0.0 
0.0100546 -0.0479764 0.0 
0.194825 -0.126462 0.0 
-0.0980508 -0.0095405 0.0 
0.316775 -0.248706 0.0 
0.0787105 -0.116829 0.0 
0.306964 -0.206951 0.0 
-0.00135385 -0.0561845 0.0 
1.40135 -0.184689 0.0 
0.191808 -0.0835048 0.0 
0.216055 0.137521 0.0 
-0.0553681 0.0107185 0.0 
0.222096 -0.130065 0.0 
-0.0673925 -0.0703884 0.0 
0.0305057 -0.0596927 0.0 
0.445517 -0.311208 0.0 
0.156595 -0.0127485 0.0 
1.32019 -0.890734 0.0 
0.710675 -0.44703 0.0 
0.0253822 -0.030865 0.0 
0.0265923 -0.0168368 0.0 
0.0232874 -0.0095513 0.0 
0.565797 -0.559866 0.0 
-0.145312 -0.124087 0.0 
0.651745 -0.304893 0.0 
1.09586 -0.137574 0.0 
0.0210886 -0.0171268 0.0 
-0.049598 -0.0915427 0.0 