<VTKFile type="UnstructuredGrid" version="0.1" byte_order="LittleEndian">
  <UnstructuredGrid>
    <Piece NumberOfPoints="19131" NumberOfCells="38183">
      <Points>
        <DataArray type = "Float64" NumberOfComponents="3" format="ascii">
6.21403 4.985 0.0 
6.21808 4.96794 0.0 
6.19936 4.97028 0.0 
6.18374 4.98904 0.0 
6.2416 4.98089 0.0 
6.24009 4.97365 0.0 
6.21963 4.97663 0.0 
6.22914 4.9735 0.0 
6.23437 4.98249 0.0 
6.24794 4.97986 0.0 
6.18854 4.98404 0.0 
6.19768 4.97738 0.0 
6.20232 4.98877 0.0 
6.2316 4.96919 0.0 
6.23032 4.97792 0.0 
6.20421 4.9674 0.0 
6.18539 4.96456 0.0 
6.22406 4.98204 0.0 
6.18567 4.97221 0.0 
6.23951 4.97714 0.0 
6.1749 4.99561 0.0 
6.18478 4.97849 0.0 
6.16559 4.97379 0.0 
6.14708 4.99379 0.0 
6.20514 4.97473 0.0 
6.21207 4.97939 0.0 
6.17049 4.98142 0.0 
6.20072 4.98208 0.0 
6.15872 4.98676 0.0 
6.2018 4.96172 0.0 
6.21641 4.9725 0.0 
6.24352 5.00223 0.0 
6.19772 4.99726 0.0 
6.16341 4.96505 0.0 
6.22678 4.99671 0.0 
6.2113 4.99346 0.0 
6.23707 4.99211 0.0 
6.21416 5.00027 0.0 
6.25574 5.00182 0.0 
6.18703 5.00501 0.0 
6.23197 5.01438 0.0 
6.24698 5.01536 0.0 
6.21953 4.99053 0.0 
6.25628 4.98039 0.0 
6.22437 5.00524 0.0 
6.25231 4.99493 0.0 
6.24804 4.97706 0.0 
6.21054 5.00867 0.0 
6.25639 4.99069 0.0 
6.25971 5.0195 0.0 
6.24849 4.97436 0.0 
6.266 5.00858 0.0 
6.24305 4.99731 0.0 
6.25411 5.0098 0.0 
6.2382 5.0062 0.0 
6.24427 4.98433 0.0 
6.24752 4.99046 0.0 
6.27314 4.99842 0.0 
6.25824 4.98702 0.0 
6.25183 4.98348 0.0 
6.27816 4.99508 0.0 
6.23253 4.98624 0.0 
6.26344 4.99438 0.0 
6.22545 4.98718 0.0 
6.26965 5.00383 0.0 
6.26286 4.99866 0.0 
6.26512 4.99002 0.0 
6.2506 4.98736 0.0 
6.25846 4.98392 0.0 
6.27067 4.99372 0.0 
6.24119 4.98721 0.0 
6.28025 5.00443 0.0 
6.03966 4.95165 0.0 
5.96882 4.81315 0.0 
5.95469 4.8493 0.0 
6.07444 4.9524 0.0 
6.13232 4.95388 0.0 
6.04939 4.93808 0.0 
6.07657 4.96468 0.0 
6.17832 4.95719 0.0 
6.06511 4.9124 0.0 
6.18628 4.95358 0.0 
6.16482 4.93724 0.0 
6.11077 4.96217 0.0 
6.18037 4.94612 0.0 
6.10271 4.93552 0.0 
6.15547 4.94797 0.0 
6.0352 4.9231 0.0 
6.13366 4.93073 0.0 
6.01906 4.8799 0.0 
6.06551 4.89216 0.0 
6.09342 4.94524 0.0 
5.98223 4.77241 0.0 
6.16257 4.95812 0.0 
6.22555 4.86997 0.0 
6.10293 4.81011 0.0 
6.2024 4.94944 0.0 
6.19159 4.92707 0.0 
6.04452 4.82245 0.0 
6.21467 4.91563 0.0 
6.25427 4.90024 0.0 
6.21891 4.93497 0.0 
6.02264 4.85499 0.0 
6.22039 4.92597 0.0 
6.15796 4.91224 0.0 
6.21957 4.94989 0.0 
6.09957 4.84195 0.0 
6.15378 4.92373 0.0 
6.27805 4.90415 0.0 
6.23205 4.9545 0.0 
6.18893 4.90236 0.0 
6.19484 4.91675 0.0 
6.23131 4.94785 0.0 
6.10284 4.90019 0.0 
6.24447 4.8869 0.0 
6.05398 4.77331 0.0 
6.24513 4.9165 0.0 
6.12255 4.86549 0.0 
6.08332 4.86753 0.0 
6.23336 4.94048 0.0 
6.23791 4.93111 0.0 
6.22859 4.90665 0.0 
6.18316 4.83546 0.0 
6.18544 4.8641 0.0 
6.19487 4.8828 0.0 
6.18312 4.9344 0.0 
6.14454 4.84406 0.0 
6.15831 4.88336 0.0 
6.27532 4.88519 0.0 
6.21614 4.89418 0.0 
6.12703 4.89047 0.0 
6.25062 4.96063 0.0 
6.36769 4.98191 0.0 
6.26273 4.94649 0.0 
6.26974 4.93041 0.0 
6.2738 4.96922 0.0 
6.28053 4.9591 0.0 
6.29216 4.96641 0.0 
6.24451 4.95416 0.0 
6.27702 4.94821 0.0 
6.31215 4.9676 0.0 
6.33952 4.95275 0.0 
6.33968 4.97741 0.0 
6.30826 4.98288 0.0 
6.3435 4.9874 0.0 
6.28509 4.96735 0.0 
6.32235 4.94857 0.0 
6.29031 4.97128 0.0 
6.29042 4.96121 0.0 
6.29326 4.97347 0.0 
6.36176 4.97004 0.0 
6.30073 4.96698 0.0 
6.32016 4.97435 0.0 
6.34338 4.96308 0.0 
6.32491 4.95705 0.0 
6.29102 4.97906 0.0 
6.28195 4.97553 0.0 
6.27776 4.97251 0.0 
6.29097 4.94407 0.0 
6.28117 4.97001 0.0 
6.26587 4.9672 0.0 
6.27694 4.93843 0.0 
6.27624 4.95456 0.0 
6.27079 4.97492 0.0 
6.26654 4.95308 0.0 
6.31172 4.9417 0.0 
6.26306 4.96304 0.0 
6.28476 4.96364 0.0 
6.30001 4.96105 0.0 
6.29468 4.95582 0.0 
6.26982 4.9599 0.0 
6.25803 4.9574 0.0 
6.32817 4.98295 0.0 
6.29535 4.976 0.0 
6.32382 4.96407 0.0 
6.30921 4.95347 0.0 
6.25571 4.92802 0.0 
6.25405 4.94033 0.0 
6.27896 4.97727 0.0 
6.28733 4.95255 0.0 
6.3062 4.97619 0.0 
6.33564 4.97054 0.0 
6.3174 4.9789 0.0 
6.33658 4.94263 0.0 
6.28774 4.92592 0.0 
6.31972 4.97098 0.0 
6.27581 4.9744 0.0 
6.26915 4.97142 0.0 
6.27547 4.96494 0.0 
6.24674 4.94698 0.0 
6.25521 4.95202 0.0 
6.35754 4.95862 0.0 
6.27475 4.9193 0.0 
6.31182 4.92946 0.0 
6.29663 4.98104 0.0 
6.29947 4.94865 0.0 
6.30225 4.97198 0.0 
6.31142 4.96147 0.0 
6.28545 4.97438 0.0 
6.30174 4.97916 0.0 
6.28708 4.97758 0.0 
6.2958 4.93589 0.0 
6.21163 4.94108 0.0 
6.29857 4.98871 0.0 
6.30767 4.99202 0.0 
6.36067 4.99412 0.0 
6.31784 4.98772 0.0 
5.98735 4.89058 0.0 
6.30912 4.99861 0.0 
6.2876 4.98728 0.0 
6.00286 4.93496 0.0 
6.31664 5.01639 0.0 
6.34203 5.00285 0.0 
6.29489 4.99746 0.0 
6.2847 4.98851 0.0 
6.30027 5.00378 0.0 
6.31487 5.00744 0.0 
6.32134 4.99481 0.0 
6.34756 4.99623 0.0 
6.3051 5.01067 0.0 
6.33388 5.01782 0.0 
6.29918 4.99414 0.0 
6.32919 5.00677 0.0 
6.28891 4.99244 0.0 
6.30317 4.98689 0.0 
6.28098 4.98479 0.0 
6.29444 4.99051 0.0 
6.32187 4.99901 0.0 
6.2717 4.97792 0.0 
6.27516 4.98152 0.0 
6.28153 4.98214 0.0 
6.28659 4.98063 0.0 
6.27877 4.9799 0.0 
6.28715 4.98345 0.0 
6.2918 4.98587 0.0 
6.29559 4.98346 0.0 
6.33245 4.99542 0.0 
4.93146 3.70598 0.0 
4.76161 3.91706 0.0 
4.89427 3.59145 0.0 
4.50365 3.8385 0.0 
4.57279 3.84993 0.0 
4.54366 4.22219 0.0 
4.69169 4.31247 0.0 
4.40273 3.90728 0.0 
4.67667 3.87996 0.0 
4.42321 3.87134 0.0 
4.59737 3.78659 0.0 
4.38891 3.65974 0.0 
4.68797 4.1747 0.0 
4.7142 4.20457 0.0 
4.61786 4.61685 0.0 
4.9444 4.10098 0.0 
4.99866 4.53068 0.0 
4.42373 3.93747 0.0 
4.98403 4.14394 0.0 
4.38507 3.98668 0.0 
5.00647 4.43235 0.0 
4.80749 3.4541 0.0 
4.71731 4.21715 0.0 
4.99825 4.202 0.0 
4.44771 3.83416 0.0 
4.93097 4.22988 0.0 
4.75533 4.2206 0.0 
4.41287 3.97929 0.0 
4.62607 4.14457 0.0 
4.34469 3.76292 0.0 
4.41059 3.80366 0.0 
4.39086 4.01538 0.0 
4.4528 4.0206 0.0 
4.41663 3.70152 0.0 
4.51942 3.75499 0.0 
4.43353 4.01334 0.0 
4.34452 3.9919 0.0 
4.35538 3.98997 0.0 
4.94846 3.71663 0.0 
4.87903 4.14506 0.0 
4.87253 4.05603 0.0 
4.51016 4.07361 0.0 
4.38946 3.97435 0.0 
4.81215 3.9571 0.0 
4.34414 3.98402 0.0 
4.91632 4.37335 0.0 
4.33066 3.9843 0.0 
5.03214 3.82147 0.0 
4.85927 3.9661 0.0 
4.42894 3.99698 0.0 
4.91711 4.02889 0.0 
4.99165 4.27666 0.0 
4.45649 3.66096 0.0 
4.42573 3.64726 0.0 
4.36967 3.68234 0.0 
4.74953 4.46114 0.0 
4.9506 4.56252 0.0 
4.38263 3.99564 0.0 
4.95 4.48867 0.0 
4.82987 3.47367 0.0 
4.77368 3.9667 0.0 
4.38552 3.93897 0.0 
4.41905 3.76354 0.0 
4.90532 4.19075 0.0 
4.39644 4.00479 0.0 
4.68917 4.16529 0.0 
4.33653 3.97364 0.0 
4.40504 3.98977 0.0 
4.53002 4.05709 0.0 
4.89148 4.25622 0.0 
4.91365 3.62694 0.0 
4.40161 3.67712 0.0 
4.72108 4.51621 0.0 
4.30004 3.92816 0.0 
4.36711 3.99559 0.0 
4.39088 3.73791 0.0 
4.3494 3.9661 0.0 
4.91696 4.07963 0.0 
4.66512 4.63555 0.0 
4.64798 3.8236 0.0 
4.36939 3.97589 0.0 
5.76405 4.67686 0.0 
4.34929 3.70723 0.0 
4.44531 3.73431 0.0 
4.35692 3.82429 0.0 
4.48313 3.72206 0.0 
4.30757 3.96399 0.0 
4.82673 4.05341 0.0 
4.74665 4.35748 0.0 
4.55139 3.74814 0.0 
4.3686 3.98713 0.0 
5.08066 3.8891 0.0 
4.29566 3.90555 0.0 
4.75292 4.39921 0.0 
4.56359 3.79845 0.0 
4.94885 3.70925 0.0 
4.41889 4.02305 0.0 
4.57616 3.73079 0.0 
4.3528 3.86227 0.0 
4.46478 3.86959 0.0 
4.51072 4.08019 0.0 
4.78208 4.46081 0.0 
4.65422 4.21586 0.0 
4.40495 4.01884 0.0 
4.44729 3.99146 0.0 
4.41216 4.01498 0.0 
4.65262 4.64655 0.0 
4.92353 4.29696 0.0 
4.48542 3.75988 0.0 
4.70857 4.25602 0.0 
4.35776 3.95371 0.0 
4.39454 4.01074 0.0 
4.82261 4.00551 0.0 
4.53815 3.70587 0.0 
4.37076 4.00182 0.0 
4.88661 4.33186 0.0 
4.31199 3.8563 0.0 
4.41041 4.00761 0.0 
4.3073 3.82987 0.0 
4.82893 4.26373 0.0 
5.79813 4.23087 0.0 
4.9549 4.33421 0.0 
4.38188 4.00228 0.0 
4.45436 4.00914 0.0 
4.89588 3.97995 0.0 
4.4614 3.79013 0.0 
4.35391 3.97946 0.0 
4.51783 3.79808 0.0 
4.44997 4.02778 0.0 
4.39704 3.99748 0.0 
4.72201 3.91688 0.0 
4.43729 4.00872 0.0 
4.96412 4.19736 0.0 
4.27418 3.8543 0.0 
4.42611 4.01529 0.0 
4.43383 4.02454 0.0 
4.39824 3.83683 0.0 
5.00309 4.34194 0.0 
4.45253 3.69434 0.0 
4.3388 3.79955 0.0 
4.95639 4.14249 0.0 
4.87555 4.01603 0.0 
4.35055 3.93481 0.0 
4.72789 4.31871 0.0 
4.4187 3.96473 0.0 
4.32186 3.91607 0.0 
4.54433 4.10314 0.0 
4.48794 3.62133 0.0 
4.78622 4.02195 0.0 
4.45201 3.9087 0.0 
4.92066 4.13474 0.0 
4.45996 3.5971 0.0 
4.93571 4.17911 0.0 
4.27108 3.88504 0.0 
4.51363 3.71215 0.0 
4.43621 3.60277 0.0 
4.3838 3.61104 0.0 
4.4166 3.60053 0.0 
4.30835 3.79867 0.0 
4.41681 4.00351 0.0 
4.3164 3.97667 0.0 
4.37982 3.70455 0.0 
4.50731 3.66436 0.0 
4.29417 3.96137 0.0 
4.32055 3.96772 0.0 
4.31669 3.88639 0.0 
4.3877 3.95798 0.0 
4.48234 3.67775 0.0 
4.46725 3.6133 0.0 
4.44525 3.61909 0.0 
4.96083 4.2561 0.0 
4.4835 3.60146 0.0 
4.51551 3.60217 0.0 
4.48478 3.58613 0.0 
4.41997 3.62267 0.0 
4.32164 3.69781 0.0 
4.59538 3.71502 0.0 
4.53979 3.62383 0.0 
4.27722 3.79858 0.0 
4.29082 3.75492 0.0 
4.40122 3.64054 0.0 
4.32257 3.72992 0.0 
4.42594 3.56724 0.0 
4.39482 3.62603 0.0 
4.89212 4.10199 0.0 
4.51493 3.63222 0.0 
4.46165 3.63383 0.0 
4.57571 3.66784 0.0 
4.32104 3.74897 0.0 
4.45148 3.56463 0.0 
4.29581 3.72742 0.0 
4.62155 3.76701 0.0 
4.73065 4.26944 0.0 
4.34582 3.65655 0.0 
4.3767 3.64706 0.0 
4.32699 3.70931 0.0 
4.86962 3.54992 0.0 
4.28298 3.93378 0.0 
4.34418 3.68992 0.0 
4.33872 3.67808 0.0 
4.95141 4.41026 0.0 
4.35871 3.66487 0.0 
4.67133 4.66512 0.0 
4.24814 3.74576 0.0 
4.76354 4.31979 0.0 
4.3897 3.58989 0.0 
4.32316 3.68165 0.0 
4.2629 3.7488 0.0 
4.27533 3.73057 0.0 
4.29907 3.70597 0.0 
4.49204 4.06659 0.0 
4.67978 3.9319 0.0 
4.83077 4.2075 0.0 
4.89405 4.53512 0.0 
4.95807 3.68377 0.0 
4.77397 4.43248 0.0 
4.37076 3.63474 0.0 
4.46378 3.57926 0.0 
4.43017 3.57999 0.0 
4.44193 3.58546 0.0 
4.53866 3.88729 0.0 
4.32159 3.67219 0.0 
4.64529 3.95262 0.0 
4.35347 3.63491 0.0 
4.40953 3.58528 0.0 
4.54224 3.67393 0.0 
4.27429 3.82712 0.0 
4.30789 3.77387 0.0 
4.48462 3.64537 0.0 
5.07429 4.34793 0.0 
5.04116 4.24903 0.0 
4.98275 4.04434 0.0 
[...]
<PointData>
  <DataArray type = "Float64" Name="Vitesse" NumberOfComponents="3" format="ascii">
0.00984427 -0.0680223 0.0 
-0.0274556 -0.0665309 0.0 
-0.0197621 -0.0846551 0.0 
0.0248088 -0.0956995 0.0 
-0.00264967 -0.0416135 0.0 
-0.0175958 -0.043704 0.0 
-0.00921928 -0.063895 0.0 
-0.0169934 -0.0548196 0.0 
0.00144849 -0.0486531 0.0 
-0.00527909 -0.0352935 0.0 
0.0126444 -0.0922669 0.0 
-0.0039499 -0.0849872 0.0 
0.0203606 -0.0783925 0.0 
-0.0261597 -0.0527082 0.0 
-0.00783037 -0.0531887 0.0 
-0.0267421 -0.0803945 0.0 
-0.0295984 -0.0991495 0.0 
0.00179773 -0.0588187 0.0 
-0.01295 -0.0974086 0.0 
-0.0103361 -0.0440354 0.0 
0.0411839 -0.102607 0.0 
0.00108974 -0.0969511 0.0 
-0.00513667 -0.11599 0.0 
0.0421098 -0.129474 0.0 
-0.0110951 -0.0783033 0.0 
-0.00213937 -0.07085 0.0 
0.0107209 -0.109689 0.0 
0.0058255 -0.0812038 0.0 
0.0250143 -0.119589 0.0 
-0.0384274 -0.0836043 0.0 
-0.017626 -0.0676349 0.0 
0.043222 -0.0372145 0.0 
0.0402595 -0.0809588 0.0 
-0.0239894 -0.120028 0.0 
0.0335682 -0.0539398 0.0 
0.029075 -0.0690871 0.0 
0.0218749 -0.0448158 0.0 
0.0437717 -0.0651486 0.0 
0.0407677 -0.0255581 0.0 
0.0595792 -0.0893467 0.0 
0.0721268 -0.0460469 0.0 
0.0718682 -0.031986 0.0 
0.0211108 -0.0618551 0.0 
-0.00462077 -0.0267423 0.0 
0.0530434 -0.0547071 0.0 
0.02621 -0.02967 0.0 
-0.0110661 -0.0353628 0.0 
0.0632378 -0.0668894 0.0 
0.0168225 -0.0260243 0.0 
0.079234 -0.0194479 0.0 
-0.0166099 -0.0350356 0.0 
0.0543253 -0.0148649 0.0 
0.0324891 -0.0383465 0.0 
0.0584777 -0.0260861 0.0 
0.0527906 -0.0416374 0.0 
0.00437537 -0.0386386 0.0 
0.017104 -0.0348334 0.0 
0.0319656 -0.00875936 0.0 
0.00899498 -0.0244056 0.0 
0.002016 -0.0310998 0.0 
0.0247969 -0.00386219 0.0 
0.00975421 -0.0499954 0.0 
0.024093 -0.0187054 0.0 
0.0128082 -0.0567202 0.0 
0.0436443 -0.0118311 0.0 
0.0331928 -0.0189686 0.0 
0.0149087 -0.0172663 0.0 
0.0102231 -0.032068 0.0 
0.00258488 -0.0243374 0.0 
0.0223322 -0.0114743 0.0 
0.0108055 -0.0414114 0.0 
0.0441784 -0.00131478 0.0 
-0.0291869 -0.241395 0.0 
-0.276199 -0.333081 0.0 
-0.207455 -0.334163 0.0 
-0.0313115 -0.206545 0.0 
-0.0410602 -0.151939 0.0 
-0.0557672 -0.232886 0.0 
-0.00720076 -0.202841 0.0 
-0.0442446 -0.107419 0.0 
-0.112596 -0.224438 0.0 
-0.053311 -0.100226 0.0 
-0.0840168 -0.12433 0.0 
-0.0180979 -0.170091 0.0 
-0.0681092 -0.107335 0.0 
-0.0733828 -0.184124 0.0 
-0.0595552 -0.131499 0.0 
-0.0833907 -0.248835 0.0 
-0.0914034 -0.156428 0.0 
-0.165966 -0.273722 0.0 
-0.154627 -0.229775 0.0 
-0.0501032 -0.190042 0.0 
-0.34256 -0.330907 0.0 
-0.0390303 -0.122404 0.0 
-0.195856 -0.050011 0.0 
-0.294636 -0.19794 0.0 
-0.0638911 -0.0844231 0.0 
-0.106879 -0.0974752 0.0 
-0.275206 -0.262606 0.0 
-0.127474 -0.0714048 0.0 
-0.145267 -0.0201988 0.0 
-0.0926585 -0.0673628 0.0 
-0.215603 -0.277501 0.0 
-0.108897 -0.0653945 0.0 
-0.13281 -0.134969 0.0 
-0.0641712 -0.0664113 0.0 
-0.249924 -0.203211 0.0 
-0.109686 -0.137767 0.0 
-0.133494 0.00913892 0.0 
-0.0556042 -0.0529944 0.0 
-0.151419 -0.100592 0.0 
-0.126149 -0.0941916 0.0 
-0.0683751 -0.0538461 0.0 
-0.147652 -0.192936 0.0 
-0.166877 -0.0293991 0.0 
-0.346098 -0.254283 0.0 
-0.122152 -0.0351529 0.0 
-0.212749 -0.176373 0.0 
-0.205508 -0.218094 0.0 
-0.0821075 -0.0514243 0.0 
-0.0985973 -0.0456462 0.0 
-0.140682 -0.0537995 0.0 
-0.250035 -0.0991422 0.0 
-0.211773 -0.101368 0.0 
-0.182551 -0.0918567 0.0 
-0.0921213 -0.105942 0.0 
-0.244977 -0.150184 0.0 
-0.184266 -0.135846 0.0 
-0.160083 0.0117355 0.0 
-0.16197 -0.0668922 0.0 
-0.170176 -0.170014 0.0 
-0.0438046 -0.0329599 0.0 
0.0118493 0.0950736 0.0 
-0.0692069 -0.0185663 0.0 
-0.0953148 -0.00759395 0.0 
-0.0264825 -0.00805092 0.0 
-0.0445507 0.000446892 0.0 
-0.0299039 0.0125053 0.0 
-0.056286 -0.0394908 0.0 
-0.0641926 -0.00209135 0.0 
-0.0244868 0.0350601 0.0 
-0.0420382 0.0706229 0.0 
-0.00180695 0.0645327 0.0 
0.00226499 0.0283736 0.0 
0.0157277 0.0666262 0.0 
-0.0289227 0.00458536 0.0 
-0.0536006 0.0512692 0.0 
-0.0211582 0.00989546 0.0 
-0.0394142 0.0113085 0.0 
-0.0167649 0.012949 0.0 
-0.00847277 0.0916076 0.0 
-0.0275865 0.0221753 0.0 
-0.0111477 0.0429607 0.0 
-0.0248704 0.0720816 0.0 
-0.0395318 0.0520339 0.0 
-0.00653556 0.0100033 0.0 
-0.0138656 0.000460325 0.0 
-0.0199508 -0.00391623 0.0 
-0.0684486 0.0151076 0.0 
-0.0244082 -1.72891e-05 0.0 
-0.0307077 -0.0165787 0.0 
-0.0807605 -0.000487911 0.0 
-0.0531852 -0.0038923 0.0 
-0.0155812 -0.0115144 0.0 
-0.0569446 -0.0148628 0.0 
-0.0671886 0.0403775 0.0 
-0.0387806 -0.01949 0.0 
-0.0356998 0.00466839 0.0 
-0.0381464 0.0223127 0.0 
-0.0480277 0.0171196 0.0 
-0.0441735 -0.0117523 0.0 
-0.0496626 -0.0247307 0.0 
0.00519606 0.0503932 0.0 
-0.0118319 0.015008 0.0 
-0.0283427 0.0490161 0.0 
-0.0491618 0.0344035 0.0 
-0.101717 -0.0243012 0.0 
-0.081123 -0.0279873 0.0 
-0.0106934 -0.00285953 0.0 
-0.0550113 0.00918892 0.0 
-0.0101319 0.0270067 0.0 
-0.0150435 0.0611041 0.0 
-0.00353935 0.0390786 0.0 
-0.0584519 0.0700993 0.0 
-0.0983184 0.0153613 0.0 
-0.0172318 0.04305 0.0 
-0.0164043 -0.0061213 0.0 
-0.0224717 -0.0131901 0.0 
-0.0344332 -0.0058795 0.0 
-0.0695764 -0.0367164 0.0 
-0.0597982 -0.0275333 0.0 
-0.0278464 0.090045 0.0 
-0.111728 0.000991699 0.0 
-0.0860419 0.0439696 0.0 
-0.00234182 0.0159041 0.0 
-0.0591983 0.0240524 0.0 
-0.0182722 0.0231773 0.0 
-0.0352987 0.0353816 0.0 
-0.015792 0.00432107 0.0 
-0.00530267 0.0216618 0.0 
-0.00960599 0.0058669 0.0 
-0.0804583 0.0227384 0.0 
-0.081066 -0.0752745 0.0 
0.0125519 0.0175012 0.0 
0.0194375 0.0268989 0.0 
0.0304476 0.0844234 0.0 
0.0122482 0.0383088 0.0 
-0.137185 -0.298433 0.0 
0.0321768 0.0280191 0.0 
0.00914784 0.0059343 0.0 
-0.0583502 -0.279169 0.0 
0.0679832 0.0352798 0.0 
0.0433437 0.0627318 0.0 
0.0295026 0.0133039 0.0 
0.0114674 0.00284615 0.0 
0.0422238 0.0187409 0.0 
0.0498226 0.0335501 0.0 
0.0260434 0.0413388 0.0 
0.0322325 0.069779 0.0 
0.0563209 0.0236176 0.0 
0.0715067 0.0530959 0.0 
0.0230268 0.0177855 0.0 
0.0494711 0.0486588 0.0 
0.0193893 0.00715025 0.0 
0.00936349 0.0225329 0.0 
0.00405444 -0.000988512 0.0 
0.0157926 0.0130087 0.0 
0.0340657 0.0415368 0.0 
-0.0097026 -0.0106432 0.0 
-0.00256162 -0.00706479 0.0 
-0.00111774 -0.000314837 0.0 
-0.00380382 0.00514968 0.0 
-0.00559485 -0.00318922 0.0 
0.00166065 0.00559326 0.0 
0.00657993 0.0104181 0.0 
0.00214416 0.014591 0.0 
0.0284425 0.0533176 0.0 
0.148295 0.0398421 0.0 
0.0569357 -0.0861988 0.0 
-0.0324906 0.024998 0.0 
0.00879628 -0.0242764 0.0 
0.0148546 -0.0354667 0.0 
-7.15588e-48 6.19538e-48 0.0 
5.08606e-38 1.01074e-37 0.0 
0.00108713 -0.0116954 0.0 
0.0338476 -0.0568972 0.0 
0.00330427 -0.01438 0.0 
0.0247013 -0.0272619 0.0 
0.005032 -0.00323983 0.0 
6.17574e-19 9.51901e-19 0.0 
-0.0428526 -0.0897428 0.0 
-1.65592e-05 1.6551e-05 0.0 
0.039763 -0.269587 0.0 
0.037773 -0.386019 0.0 
-0.00171234 -0.0133144 0.0 
0.0565072 -0.383149 0.0 
-0.0014267 -0.00532137 0.0 
0.0168509 -0.445315 0.0 
4.25972e-19 4.54006e-19 0.0 
-0.0421756 -0.0883251 0.0 
0.0624933 -0.471678 0.0 
0.00662797 -0.0167792 0.0 
0.00903496 -0.336519 0.0 
-0.101662 -0.231993 0.0 
-0.00391811 -0.00955817 0.0 
4.01514e-19 4.26993e-19 0.0 
0.00433343 -0.00479268 0.0 
0.00642018 -0.0116752 0.0 
-0.000195858 -0.00219142 0.0 
-0.0105281 -0.0108051 0.0 
0.00695274 -0.00709387 0.0 
0.0146651 -0.0189472 0.0 
-0.00720843 -0.00900194 0.0 
0.00153002 -0.00282601 0.0 
0.000935688 -0.00323395 0.0 
0.160614 -0.0257612 0.0 
-0.00832792 -0.2356 0.0 
0.0362855 -0.197855 0.0 
-2.54454e-07 -2.56951e-07 0.0 
-0.0015707 -0.0070005 0.0 
0.0643604 -0.122436 0.0 
0.00147834 -0.00329772 0.0 
0.0314788 -0.393401 0.0 
0.00228831 -0.00280234 0.0 
0.217163 -0.502471 0.0 
0.084841 -0.148708 0.0 
-0.00619529 -0.00993379 0.0 
0.0715514 -0.212365 0.0 
0.0427958 -0.475597 0.0 
0.00921498 -0.00675511 0.0 
0.00689033 -0.00423509 0.0 
0.00428977 -0.00338919 0.0 
-1.49799e-19 1.56711e-18 0.0 
0.0839982 -0.361183 0.0 
-0.00120805 -0.00437965 0.0 
0.0564878 -0.400526 0.0 
-0.00272885 -0.00238674 0.0 
0.0410492 -0.112708 0.0 
-0.000199988 -0.00877856 0.0 
0.00723609 -0.0108313 0.0 
-0.00799359 -0.27488 0.0 
-0.0023284 -0.0052802 0.0 
-0.0528369 -0.0761073 0.0 
0.00169699 -0.00353843 0.0 
-0.00340409 -0.00726858 0.0 
-0.0143559 -0.0125827 0.0 
-0.0133671 -0.302289 0.0 
-0.0078358 0.0120572 0.0 
0.00585717 -0.00479649 0.0 
-5.68851e-21 1.78052e-20 0.0 
0.00282335 -0.00336975 0.0 
0.000346409 -0.00333517 0.0 
0.00582818 -0.00727125 0.0 
0.00108361 -0.00452795 0.0 
0.0394382 -0.233372 0.0 
-7.92809e-38 1.32289e-37 0.0 
0.0335821 -0.0370001 0.0 
-0.000228564 -0.00545445 0.0 
-0.394233 -0.50272 0.0 
0.00380137 -0.00324981 0.0 
0.00895471 -0.0113547 0.0 
0.00484345 -0.00727363 0.0 
0.0118299 -0.0134207 0.0 
0.00268819 -0.00280457 0.0 
0.0180695 -0.173904 0.0 
2.42586e-19 1.21177e-18 0.0 
0.0187706 -0.0197498 0.0 
-0.000226776 -0.00406153 0.0 
0.182655 -0.750029 0.0 
0.00305937 -0.00349488 0.0 
2.8451e-20 1.38903e-18 0.0 
0.0179213 -0.0274031 0.0 
0.141054 -0.0390121 0.0 
-0.00150397 -0.00288506 0.0 
0.023235 -0.0169564 0.0 
0.00389878 -0.00739585 0.0 
0.00410098 -0.0204731 0.0 
1.14546e-19 9.68297e-20 0.0 
0.0498304 -0.346369 0.0 
7.60661e-38 1.08973e-37 0.0 
-0.00143844 -0.00292949 0.0 
-0.00786743 -0.0135258 0.0 
-0.00386632 -0.0064248 0.0 
-4.24346e-40 7.56704e-40 0.0 
0.0159195 -0.369411 0.0 
0.011627 -0.0166685 0.0 
2.82669e-19 6.38243e-19 0.0 
0.000711552 -0.00569424 0.0 
-0.00181017 -0.00513124 0.0 
0.0435999 -0.150637 0.0 
0.0176983 -0.0140152 0.0 
0.000281371 -0.003608 0.0 
0.0046238 -0.342416 0.0 
0.00383313 -0.00436971 0.0 
-0.0038048 -0.00651261 0.0 
0.00396657 -0.00375712 0.0 
-0.0481521 -0.276184 0.0 
-0.402263 -0.538664 0.0 
0.0345848 -0.434 0.0 
-0.000777442 -0.00434792 0.0 
-0.0103694 -0.0122096 0.0 
0.0947872 -0.176055 0.0 
0.00920195 -0.0163058 0.0 
0.000819394 -0.00398621 0.0 
0.0127481 -0.0229167 0.0 
-0.00422017 -0.0046846 0.0 
-0.00267745 -0.00563109 0.0 
0.0394185 -0.0771026 0.0 
-0.00757591 -0.0100223 0.0 
0.0343589 -0.375901 0.0 
0.00342245 -0.00232536 0.0 
-0.0061187 -0.00793462 0.0 
-0.00381566 -0.00448044 0.0 
0.00505403 -0.0112345 0.0 
0.0293829 -0.477016 0.0 
0.00934436 -0.00903868 0.0 
0.0045156 -0.00531403 0.0 
0.0326686 -0.312366 0.0 
0.0622784 -0.182092 0.0 
0.00134652 -0.00591371 0.0 
7.79849e-20 2.99748e-19 0.0 
-0.00338019 -0.0113413 0.0 
0.00249344 -0.00473896 0.0 
9.68158e-20 8.06537e-20 0.0 
0.0111655 -0.00445396 0.0 
0.018311 -0.142822 0.0 
2.73354e-05 -0.018558 0.0 
0.012975 -0.259154 0.0 
0.00828713 -0.00212321 0.0 
0.0130802 -0.305987 0.0 
0.00330752 -0.00249976 0.0 
0.0147312 -0.014307 0.0 
0.00685048 -0.00205356 0.0 
0.00440293 -0.000765921 0.0 
0.00575418 -0.00140498 0.0 
0.00383047 -0.00318994 0.0 
-0.00494945 -0.00738662 0.0 
0.00263114 -0.00275463 0.0 
0.00499287 -0.00496029 0.0 
0.0138573 -0.00900564 0.0 
0.00302747 -0.00246338 0.0 
0.00235175 -0.00313011 0.0 
0.00327158 -0.00471097 0.0 
-0.00109182 -0.00793251 0.0 
0.0115899 -0.00955958 0.0 
0.00915979 -0.00346265 0.0 
0.00766587 -0.00330261 0.0 
0.0328906 -0.41389 0.0 
0.0103068 -0.00262287 0.0 
0.0134207 -0.00197852 0.0 
0.0100258 -0.00127403 0.0 
0.00623842 -0.00263945 0.0 
0.00284666 -0.00152464 0.0 
0.027189 -0.0128516 0.0 
0.0168846 -0.0030527 0.0 
0.003161 -0.00150025 0.0 
0.00289618 -0.00126764 0.0 
0.0054964 -0.00279011 0.0 
0.00329781 -0.00238523 0.0 
0.005753 8.52537e-05 0.0 
0.0050335 -0.00182502 0.0 
0.0171698 -0.226374 0.0 
0.014146 -0.00534047 0.0 
0.00909308 -0.00494753 0.0 
0.0233719 -0.00633824 0.0 
0.00350406 -0.00278474 0.0 
0.0071357 9.89386e-05 0.0 
0.00265658 -0.000954557 0.0 
0.0311476 -0.0222706 0.0 
5.33267e-19 1.40598e-18 0.0 
0.00312452 -0.00129362 0.0 
0.00436101 -0.00210538 0.0 
0.00314213 -0.00208042 0.0 
-0.0446494 0.0310653 0.0 
0.00308786 -0.00270672 0.0 
0.00340247 -0.00237919 0.0 
0.00309132 -0.00173683 0.0 
0.0391807 -0.430288 0.0 
0.00366686 -0.0021315 0.0 
0.0957912 -0.144572 0.0 
0.00207741 0.000401317 0.0 
-0.0291747 -0.176867 0.0 
0.00439563 -4.83694e-05 0.0 
0.00267428 -0.00119283 0.0 
0.00233697 -7.47379e-05 0.0 
0.0023351 -0.000203709 0.0 
0.00246968 -0.000690346 0.0 
9.29573e-20 8.29434e-20 0.0 
0.0207762 -0.0736208 0.0 
-0.0469686 -0.245782 0.0 
0.0959013 -0.363941 0.0 
0.0319721 -0.191414 0.0 
0.0235803 -0.279383 0.0 
0.00402063 -0.00132152 0.0 
0.00825071 -0.000828914 0.0 
0.0061678 -0.000664745 0.0 
0.00691865 -0.00113994 0.0 
0.0056512 -0.0341846 0.0 
0.00252867 -0.000875648 0.0 
0.0046387 -0.0690236 0.0 
0.00332723 -0.00075512 0.0 
0.00520516 -0.000461663 0.0 
0.0183425 -0.00948438 0.0 
0.00336492 -0.00192192 0.0 
0.00352396 -0.00260495 0.0 
0.0112907 -0.00675828 0.0 
-0.00285338 -0.508505 0.0 
0.0459867 -0.538307 0.0 
0.093299 -0.302081 0.0 
-0.00170913 -0.404684 0.0 
0.0356246 -0.356672 0.0 
0.0787043 -0.335501 0.0 
0.0783306 -0.0868104 0.0 
0.0851241 -0.380979 0.0 
0.112374 -0.130933 0.0 
0.078746 -0.460752 0.0 
0.0179742 -0.945858 0.0 
5.38478e-19 5.87115e-19 0.0 
0.00617931 -0.0764626 0.0 
-0.19636 -0.601461 0.0 
-0.00708351 -0.00181787 0.0 
0.000305734 -1.03941 0.0 
0.00714308 0.00704891 0.0 
-0.0243555 -0.0582072 0.0 
0.0436102 -1.04996 0.0 
2.00069e-19 1.72737e-19 0.0 
0.0863946 -0.326036 0.0 
0.00403976 0.00377733 0.0 
-0.00343668 -0.0262277 0.0 
-1.50423e-54 -2.44556e-54 0.0 
0.00108789 -0.406615 0.0 
-0.0224012 -0.0430617 0.0 
-0.0239471 -0.0293038 0.0 
0.145908 -0.673812 0.0 
0.0321031 -0.275127 0.0 
0.0509156 0.0138961 0.0 
0.225574 -0.20888 0.0 
-0.0538111 -0.702578 0.0 
-0.0608337 -0.224653 0.0 
-0.221589 -0.515168 0.0 
-0.0309842 -0.0283007 0.0 
0.122962 -1.02561 0.0 
0.0842414 0.0320144 0.0 
-0.0531942 0.0186326 0.0 
-0.0358314 -1.04124 0.0 
0.0454306 -0.00728723 0.0 
0.0117713 0.00759562 0.0 
0.225093 -0.0172063 0.0 
0.0116442 0.00558871 0.0 
0.00320814 -0.00244172 0.0 
0.018267 -0.106337 0.0 
-0.0842594 -0.0777319 0.0 
-0.186234 -0.311862 0.0 
0.0114075 0.0105646 0.0 
-0.0928673 -0.742521 0.0 
-0.0559623 -0.21265 0.0 
-0.00827054 -0.0239487 0.0 
0.0130326 -0.810166 0.0 
0.0642194 -0.112 0.0 
-0.162882 -0.246789 0.0 
-4.21466e-20 5.31622e-19 0.0 
-0.0561839 0.0159903 0.0 
-0.460745 -0.632666 0.0 
2.27368e-19 2.16867e-19 0.0 
-0.0736875 -0.0375344 0.0 
-0.0646891 -0.00395329 0.0 
0.0547261 -0.898859 0.0 
0.0102786 0.000942 0.0 
-0.0875549 -1.02405 0.0 
-0.0912288 -0.837326 0.0 
0.0765143 -0.0280671 0.0 
0.00765362 -0.161922 0.0 
0.0157721 0.00409278 0.0 
-0.1611 -0.207885 0.0 
0.041708 0.00857716 0.0 
-0.14393 -0.467776 0.0 
6.28859e-19 6.45422e-19 0.0 
-4.27073e-20 8.79318e-20 0.0 
0.00548744 -0.00791017 0.0 
-2.27772e-22 5.87107e-22 0.0 
-0.00855877 -0.00187909 0.0 
2.77163e-20 2.51922e-20 0.0 
0.183413 -0.390365 0.0 
0.103308 -0.282179 0.0 
0.0360485 -0.568209 0.0 
0.200969 -0.450141 0.0 
-3.03665e-21 4.79873e-20 0.0 
-0.00402642 -0.135943 0.0 
-0.0593645 -0.0660571 0.0 
-0.226163 -0.418868 0.0 
-0.191454 -0.271443 0.0 
0.0266928 0.00144607 0.0 
0.031669 -0.0032221 0.0 
-0.00819547 -0.106943 0.0 
0.131877 -0.288812 0.0 
0.0331645 -0.360811 0.0 
-0.00934971 -0.00116213 0.0 
0.0160622 -0.00928468 0.0 
0.10626 -1.0128 0.0 
0.0292462 0.0175362 0.0 
-0.0645196 -0.0284375 0.0 
-0.142693 -0.478043 0.0 
-0.00523712 -0.00130305 0.0 
0.0723653 -0.0880553 0.0 
0.0510493 0.0373477 0.0 
-0.0388419 -0.301738 0.0 
-0.0413025 -0.155726 0.0 
0.00263307 -0.00309272 0.0 
-5.81297e-21 1.19674e-20 0.0 
0.0406293 0.0270342 0.0 
-9.5311e-07 -1.74839e-05 0.0 
-0.00880327 -0.00197428 0.0 
-0.0472473 0.0209459 0.0 
1.19718e-19 1.31396e-19 0.0 
0.00735041 0.00441917 0.0 
-0.0335483 -0.193693 0.0 
0.0893648 -0.113456 0.0 
0.101613 -0.214818 0.0 
0.230715 -0.0952021 0.0 
0.0960805 -0.967473 0.0 
0.0534136 -0.00196989 0.0 
0.0757954 0.0631704 0.0 
-0.151985 -0.632462 0.0 
0.202509 -0.335186 0.0 
-0.065656 -0.0121239 0.0 
0.0747939 -0.00681142 0.0 
-0.291978 -0.440381 0.0 
0.0789351 -0.0225331 0.0 
-0.0375683 -0.00064979 0.0 
-0.00651488 -0.00754981 0.0 
0.0947543 -0.0510057 0.0 
-0.374096 -0.834006 0.0 
0.00431793 -0.0366925 0.0 
0.00318276 -0.0102149 0.0 
0.00166952 -0.00796378 0.0 
0.0232474 -0.318858 0.0 
-6.38609e-05 -6.16438e-05 0.0 
-3.30831e-73 -3.67425e-72 0.0 
0.130138 -0.965666 0.0 
-0.000507812 -6.84863e-05 0.0 
0.189464 -0.0819438 0.0 
0.244176 -0.131672 0.0 
-0.0838599 -0.0499152 0.0 
0.14471 -0.00318924 0.0 
-0.139282 -0.177885 0.0 
0.166772 -0.810581 0.0 
0.262129 -0.246482 0.0 
-0.0259436 0.0415056 0.0 
0.00779453 -0.0175513 0.0 
0.0899395 0.014345 0.0 
-2.09307e-20 5.0017e-20 0.0 
-0.0631783 -0.0079944 0.0 
0.104633 -0.189557 0.0 
0.205824 -0.0314272 0.0 
0.0995763 0.0762431 0.0 
0.24176 -0.124767 0.0 
0.234599 -0.27979 0.0 
-0.00325791 -0.325657 0.0 
4.13913e-19 4.0446e-19 0.0 
0.117041 -0.57488 0.0 
0.0692188 -0.958657 0.0 
0.0515377 0.0131071 0.0 
-0.226579 -0.419927 0.0 
-0.042561 -0.00520525 0.0 
-0.392856 -0.755103 0.0 
0.153984 -0.803698 0.0 
-0.0497617 0.0212712 0.0 
-0.00255632 -0.0361641 0.0 
0.040823 -0.0633955 0.0 
-0.167774 -0.909175 0.0 
0.0348091 0.0308565 0.0 
0.200724 -0.192282 0.0 
-0.161146 -0.731901 0.0 
-0.0570358 -0.883636 0.0 
0.11493 0.0197961 0.0 
0.00281038 -0.0068355 0.0 
0.199173 -0.158863 0.0 
-0.239201 -0.428038 0.0 
0.194263 -0.0681165 0.0 
0.0564503 0.0562577 0.0 
0.0660021 -1.03067 0.0 
0.00362285 0.00405578 0.0 
-0.0617338 -0.513393 0.0 
-0.0768885 -0.793548 0.0 
-0.164644 -0.220149 0.0 
0.0146746 0.00626885 0.0 
0.0489382 -1.00466 0.0 
-0.00584851 -0.0166789 0.0 
0.0678866 -0.406956 0.0 
-0.00430299 -0.00108167 0.0 
0.00908338 0.00557126 0.0 
0.0968895 -0.751553 0.0 
0.0198943 0.00833638 0.0 
-0.0285785 0.0084717 0.0 
-0.0144037 0.0120217 0.0 
-0.0305152 -0.0273597 0.0 
-0.0691539 -0.99668 0.0 
-1.10381e-06 -2.02484e-05 0.0 
-0.047099 0.017412 0.0 
-0.0710371 -0.3901 0.0 
0.168875 -0.262134 0.0 
0.133748 0.0400423 0.0 
-0.0645834 -0.0600561 0.0 
0.00210391 -0.00381873 0.0 
-0.170433 -0.236731 0.0 
-0.0374937 0.0272205 0.0 
0.221878 -0.124103 0.0 
-8.09368e-20 1.14197e-18 0.0 
0.25154 -0.0844378 0.0 
-0.0162371 -0.0210702 0.0 
2.57873e-19 2.69364e-19 0.0 
0.15016 -0.434267 0.0 
4.6066e-19 4.48911e-19 0.0 
0.11505 -0.0320744 0.0 
0.242275 -0.394783 0.0 
-4.20094e-05 -1.20041e-05 0.0 
0.00758198 -0.00595409 0.0 
-0.0486073 0.0308584 0.0 
-0.0431056 0.0250459 0.0 
0.231234 -0.162301 0.0 
-0.000402517 -0.000397559 0.0 
0.0233014 -0.0429976 0.0 
-0.00455249 0.0661788 0.0 
-0.283133 -0.914222 0.0 
0.07249 -0.363774 0.0 
-0.42361 -0.773693 0.0 
-0.161066 -0.308488 0.0 
0.00935228 0.00735936 0.0 
-0.0604447 0.00625001 0.0 
0.201996 0.0128327 0.0 
0.132856 -0.173639 0.0 
-0.162033 -0.989875 0.0 
-0.214388 -0.4859 0.0 
0.0651143 0.0237598 0.0 
0.00419911 -0.00423021 0.0 
7.89245e-74 -3.07676e-73 0.0 
0.0819928 0.00731134 0.0 
-0.21015 -0.376794 0.0 
0.0441107 -0.0144553 0.0 
-0.000841684 -0.00136306 0.0 
0.0457333 -0.254992 0.0 
-0.35487 -0.541239 0.0 
0.195358 -0.972012 0.0 
0.0399154 -0.0142434 0.0 
-0.0307135 -0.00233871 0.0 
0.120367 -0.364348 0.0 
-2.14111e-46 1.92935e-46 0.0 
-0.063489 -0.377184 0.0 
0.074974 0.0212234 0.0 
-0.0763345 -0.0640816 0.0 
0.0309034 -1.0374 0.0 
-0.0520987 0.00357925 0.0 
0.142681 0.027632 0.0 
0.00324888 -0.00175157 0.0 
0.172191 -0.492995 0.0 
0.155385 -0.00647544 0.0 
0.0101242 -0.315715 0.0 
-0.00312324 -0.00278793 0.0 
-0.133055 -0.421369 0.0 
-0.303148 -0.842365 0.0 
0.0142257 -0.0530479 0.0 
-0.0221849 -0.307824 0.0 
-0.0354379 -0.0223235 0.0 
-0.0504371 -0.682675 0.0 
-0.0183777 -0.00247036 0.0 
-0.000360907 -0.000341181 0.0 
0.00660158 0.00473178 0.0 
1.62226e-19 1.35416e-19 0.0 
0.171791 0.0161238 0.0 
0.0260283 0.015906 0.0 
0.0151888 -0.178781 0.0 
-6.68039e-24 1.37545e-23 0.0 
0.122846 -0.914354 0.0 
0.203774 0.00740093 0.0 
-0.0396675 -0.0414628 0.0 
-0.0258779 -0.0233895 0.0 
0.0831894 0.0533374 0.0 
-0.175009 -0.667254 0.0 
-3.74993e-48 3.2466e-48 0.0 
0.000289522 -0.000193817 0.0 
-0.0624377 -0.00544722 0.0 
-0.263637 -0.467905 0.0 
-0.00571559 -0.00556027 0.0 
0.113135 -0.727024 0.0 
-0.000187084 -0.00343188 0.0 
0.22995 -0.0346272 0.0 
0.148952 -0.353259 0.0 
-0.0408527 0.0395348 0.0 
-0.0625378 0.0027164 0.0 
-0.0307432 -0.0312317 0.0 
-0.000763235 -0.935239 0.0 
0.216054 -0.48265 0.0 
-0.0017207 -0.0017465 0.0 