<VTKFile type="UnstructuredGrid" version="0.1" byte_order="LittleEndian">
  <UnstructuredGrid>
    <Piece NumberOfPoints="19061" NumberOfCells="38048">
      <Points>
        <DataArray type = "Float64" NumberOfComponents="3" format="ascii">
3.07192 4.48072 0.0 
3.93836 4.13701 0.0 
3.15925 4.61725 0.0 
3.96952 4.04508 0.0 
4.0898 4.18487 0.0 
3.99974 4.01835 0.0 
4.00392 4.02559 0.0 
4.00317 4.02815 0.0 
3.90814 4.27674 0.0 
4.00483 4.02938 0.0 
3.16535 4.51549 0.0 
4.00502 4.02801 0.0 
4.00304 4.02382 0.0 
4.00111 4.02556 0.0 
3.89226 4.66118 0.0 
4.01076 4.16641 0.0 
3.52385 4.77544 0.0 
3.81431 4.72186 0.0 
4.01028 4.13089 0.0 
3.32087 4.68841 0.0 
3.12395 4.45667 0.0 
3.96878 4.10855 0.0 
3.2692 4.66182 0.0 
3.63728 4.81868 0.0 
3.93907 4.12917 0.0 
3.13455 4.46654 0.0 
3.29579 4.67291 0.0 
3.26017 4.63402 0.0 
3.41052 4.75065 0.0 
3.27528 4.6512 0.0 
3.18334 4.52892 0.0 
3.1337 4.46815 0.0 
3.96819 4.47365 0.0 
4.00668 4.04416 0.0 
3.24368 4.63027 0.0 
3.99358 4.33702 0.0 
3.86214 4.71268 0.0 
3.94936 4.06219 0.0 
3.93509 4.06953 0.0 
3.98478 4.0239 0.0 
3.96232 4.10844 0.0 
4.00284 4.22953 0.0 
3.15312 4.51038 0.0 
4.08236 4.03617 0.0 
3.98162 4.0289 0.0 
3.87592 4.68909 0.0 
3.96562 4.1342 0.0 
3.99696 4.01091 0.0 
3.95972 4.58591 0.0 
3.88309 4.09275 0.0 
3.50277 4.80123 0.0 
4.00459 4.03149 0.0 
3.18825 4.53842 0.0 
3.94934 4.09119 0.0 
3.95274 4.12269 0.0 
4.43271 4.99729 0.0 
4.17276 4.83519 0.0 
3.79317 4.04902 0.0 
3.97335 4.04219 0.0 
3.15554 4.48403 0.0 
3.97674 4.03607 0.0 
3.99865 4.02731 0.0 
3.93737 4.17009 0.0 
3.85738 4.40294 0.0 
4.0019 4.03218 0.0 
3.15288 4.47713 0.0 
3.92958 4.20503 0.0 
3.76125 4.05666 0.0 
3.13527 4.47481 0.0 
4.00899 4.13973 0.0 
3.18955 4.52372 0.0 
4.00783 4.17453 0.0 
4.00134 4.06689 0.0 
3.15288 4.47823 0.0 
4.00561 4.05243 0.0 
4.00517 4.11196 0.0 
4.00835 4.16585 0.0 
3.11319 4.43998 0.0 
3.15533 4.49302 0.0 
4.00588 4.04679 0.0 
4.00628 4.10004 0.0 
3.57294 4.79492 0.0 
3.94021 4.44606 0.0 
3.97254 4.34322 0.0 
3.94367 4.13022 0.0 
3.45223 4.76363 0.0 
4.00793 4.10933 0.0 
3.71068 4.79482 0.0 
4.00544 4.07466 0.0 
3.98927 4.36814 0.0 
3.10937 4.43765 0.0 
4.00188 4.08405 0.0 
3.5626 4.79616 0.0 
3.1117 4.44451 0.0 
3.58023 4.78645 0.0 
4.00597 4.07975 0.0 
3.13138 4.47885 0.0 
3.91217 4.14932 0.0 
3.15382 4.48712 0.0 
3.96893 4.42461 0.0 
4.00343 4.04182 0.0 
4.00623 4.08499 0.0 
3.61739 4.81347 0.0 
3.96451 4.0728 0.0 
3.33256 4.66843 0.0 
4.00738 4.1188 0.0 
3.11501 4.42773 0.0 
3.11847 4.45722 0.0 
3.18361 4.51645 0.0 
3.97233 4.0558 0.0 
3.9171 4.31431 0.0 
4.00424 4.08125 0.0 
4.00556 4.0489 0.0 
3.72686 4.79173 0.0 
3.98871 4.01749 0.0 
3.12662 4.47183 0.0 
3.13139 4.46795 0.0 
3.98861 4.3542 0.0 
3.988 4.38375 0.0 
4.0024 4.04705 0.0 
3.43958 4.75624 0.0 
3.82993 4.70206 0.0 
3.14475 4.46996 0.0 
4.00638 4.14406 0.0 
3.30473 4.66312 0.0 
4.00569 4.13356 0.0 
3.55484 4.78512 0.0 
4.00526 4.14037 0.0 
3.99827 4.07733 0.0 
3.99673 4.04974 0.0 
3.94168 4.47926 0.0 
4.00733 4.09142 0.0 
3.94286 4.18113 0.0 
3.99821 4.06089 0.0 
3.12199 4.46411 0.0 
3.98005 4.0576 0.0 
3.21822 4.59136 0.0 
3.13876 4.48716 0.0 
3.25917 4.62197 0.0 
3.95273 4.09068 0.0 
3.46492 4.76995 0.0 
3.91273 4.1727 0.0 
3.23736 4.61263 0.0 
3.11093 4.41684 0.0 
4.00513 4.03701 0.0 
3.98664 4.02452 0.0 
3.7618 4.76131 0.0 
3.6661 4.79304 0.0 
3.18167 4.50992 0.0 
3.93914 4.11105 0.0 
3.28528 4.64914 0.0 
3.97713 4.08088 0.0 
3.16363 4.52069 0.0 
3.96985 4.09149 0.0 
3.84565 4.07918 0.0 
3.94345 4.13609 0.0 
3.11331 4.43501 0.0 
3.93296 4.09047 0.0 
3.37454 4.71959 0.0 
3.943 4.22977 0.0 
4.00918 4.15695 0.0 
3.39432 4.73604 0.0 
3.93261 4.21075 0.0 
3.1643 4.49876 0.0 
4.00334 4.15108 0.0 
3.93803 4.17893 0.0 
3.98469 4.40261 0.0 
3.30537 4.67029 0.0 
3.23825 4.6066 0.0 
4.00505 4.12706 0.0 
3.99529 4.30433 0.0 
4.00517 4.0411 0.0 
4.00647 4.15157 0.0 
3.11577 4.45157 0.0 
3.98263 4.06479 0.0 
3.27543 4.63697 0.0 
3.99968 4.10409 0.0 
3.96448 4.50325 0.0 
3.95807 4.10844 0.0 
3.45644 4.76182 0.0 
3.60005 4.80042 0.0 
3.02798 4.37582 0.0 
3.96114 4.10772 0.0 
3.97531 4.40218 0.0 
3.30676 4.65854 0.0 
4.00588 4.058 0.0 
3.63294 4.81049 0.0 
3.41278 4.73833 0.0 
3.99945 4.0893 0.0 
3.92615 4.21969 0.0 
3.99272 4.32113 0.0 
4.00258 4.07528 0.0 
3.61268 4.80554 0.0 
4.00558 4.16558 0.0 
3.50163 4.78576 0.0 
4.00273 4.1202 0.0 
3.89589 4.69716 0.0 
4.00266 4.16434 0.0 
4.00556 4.04368 0.0 
4.00388 4.05378 0.0 
4.00936 4.14677 0.0 
3.87484 4.37216 0.0 
4.00773 4.12802 0.0 
3.40064 4.72868 0.0 
3.10367 4.48343 0.0 
3.33138 4.66532 0.0 
3.53283 4.79465 0.0 
3.90812 4.5948 0.0 
3.90259 4.32553 0.0 
3.98336 4.03917 0.0 
3.25928 4.62689 0.0 
3.55155 4.78034 0.0 
3.13959 4.47648 0.0 
3.3328 4.68945 0.0 
4.00259 4.1392 0.0 
4.00528 4.17939 0.0 
4.00686 4.0504 0.0 
3.99911 4.19828 0.0 
4.0015 4.01649 0.0 
3.58852 4.80542 0.0 
3.78223 4.53921 0.0 
3.90787 4.0653 0.0 
3.35025 4.70684 0.0 
3.65732 4.80349 0.0 
3.48207 4.77897 0.0 
4.00828 4.13401 0.0 
3.55145 4.80115 0.0 
3.74508 4.58063 0.0 
3.63863 4.80457 0.0 
4.00387 4.19375 0.0 
3.65679 4.81091 0.0 
3.78103 4.7633 0.0 
3.85479 4.37427 0.0 
3.77024 4.54414 0.0 
3.57517 4.80044 0.0 
3.74949 4.78394 0.0 
3.2071 4.5615 0.0 
3.94397 4.111 0.0 
3.42782 4.74675 0.0 
4.0038 4.06108 0.0 
3.51062 4.79423 0.0 
4.00427 4.21182 0.0 
3.85037 4.42692 0.0 
3.22333 4.57468 0.0 
3.53264 4.80167 0.0 
3.67735 4.80558 0.0 
4.00439 4.04937 0.0 
3.76973 4.77921 0.0 
3.19232 4.53056 0.0 
3.57266 4.78261 0.0 
3.99621 4.26091 0.0 
4.00001 4.03626 0.0 
3.96262 4.09926 0.0 
3.9811 4.4232 0.0 
3.76644 4.77311 0.0 
3.34621 4.69273 0.0 
3.96572 4.08499 0.0 
3.8919 4.40652 0.0 
3.88524 4.32455 0.0 
4.00241 4.17941 0.0 
3.81484 4.71134 0.0 
3.93833 4.11755 0.0 
3.91279 4.28235 0.0 
3.20723 4.60866 0.0 
3.56426 4.80711 0.0 
4.00461 4.06808 0.0 
3.48729 4.78752 0.0 
3.5491 4.79305 0.0 
3.17312 4.51493 0.0 
3.73443 4.78357 0.0 
3.39587 4.73042 0.0 
3.98165 4.08304 0.0 
3.98646 4.02344 0.0 
3.98898 4.01473 0.0 
3.05733 4.42216 0.0 
3.92243 4.26944 0.0 
3.98585 4.02232 0.0 
3.67932 5.1752 0.0 
3.38608 4.72051 0.0 
3.98773 4.01912 0.0 
3.88335 4.40448 0.0 
3.95339 4.11655 0.0 
3.96936 4.06019 0.0 
3.98833 4.01734 0.0 
3.75413 5.7043 0.0 
3.98975 4.01396 0.0 
3.58568 4.79596 0.0 
3.83002 4.05977 0.0 
3.82292 4.7443 0.0 
3.48743 4.76062 0.0 
3.98654 4.02063 0.0 
3.98777 4.01799 0.0 
4.57268 4.6147 0.0 
3.9784 4.05303 0.0 
3.10001 4.50094 0.0 
3.83824 4.73592 0.0 
3.78685 4.76916 0.0 
3.3139 4.66663 0.0 
3.35309 4.70271 0.0 
3.98864 4.33537 0.0 
3.84983 4.70492 0.0 
3.97504 4.44297 0.0 
3.07977 4.46202 0.0 
3.95723 4.52191 0.0 
3.98379 4.05002 0.0 
3.14961 4.47671 0.0 
4.00001 4.2474 0.0 
3.98278 4.02854 0.0 
4.00563 4.06371 0.0 
3.14584 4.47568 0.0 
3.9554 4.05934 0.0 
3.99513 4.28434 0.0 
3.12904 4.4634 0.0 
3.48208 4.77397 0.0 
3.91293 4.57321 0.0 
4.0007 4.21384 0.0 
3.44795 4.76648 0.0 
3.12593 4.44604 0.0 
3.35605 4.68644 0.0 
4.0002 4.15771 0.0 
3.15066 4.48217 0.0 
3.96142 4.05232 0.0 
3.8809 4.32632 0.0 
3.98104 4.07611 0.0 
3.9884 4.01623 0.0 
3.86115 4.42184 0.0 
3.90983 4.09452 0.0 
3.81588 4.48139 0.0 
3.51882 4.78943 0.0 
3.36419 4.7069 0.0 
3.99759 4.23433 0.0 
3.69267 4.80008 0.0 
3.98112 4.50126 0.0 
4.00275 4.10007 0.0 
3.7953 4.75855 0.0 
3.92079 4.14593 0.0 
3.96434 4.05208 0.0 
4.60697 4.51147 0.0 
3.10972 4.53547 0.0 
3.67066 4.79905 0.0 
3.84711 4.72514 0.0 
3.99551 4.42989 0.0 
3.95702 4.12619 0.0 
3.12332 4.44045 0.0 
3.70352 4.79181 0.0 
4.00378 4.3134 0.0 
3.1149 4.43953 0.0 
3.95781 4.061 0.0 
4.0062 4.04045 0.0 
3.59346 4.81169 0.0 
3.11908 4.4406 0.0 
3.15093 4.49839 0.0 
3.93447 4.18039 0.0 
3.76352 4.76689 0.0 
3.71827 4.78656 0.0 
3.11926 4.44298 0.0 
3.56291 4.78293 0.0 
3.13552 4.4729 0.0 
3.13301 4.44377 0.0 
3.68494 4.79306 0.0 
3.98402 4.02732 0.0 
3.98531 4.02608 0.0 
3.38025 4.71955 0.0 
3.98688 4.0195 0.0 
4.00397 4.033 0.0 
3.98569 4.02371 0.0 
4.0048 4.03351 0.0 
3.13665 4.46319 0.0 
3.92471 4.56216 0.0 
3.98436 4.0259 0.0 
3.98267 4.03893 0.0 
3.98688 4.02144 0.0 
3.12451 4.43935 0.0 
3.9791 4.03391 0.0 
3.89627 4.29027 0.0 
3.44553 4.7425 0.0 
3.1609 4.5056 0.0 
3.84589 4.69045 0.0 
4.00481 4.09031 0.0 
3.98071 4.03881 0.0 
3.90003 4.57948 0.0 
3.1215 4.44117 0.0 
3.95469 4.07308 0.0 
3.13483 4.47964 0.0 
3.91882 4.58171 0.0 
3.98113 4.03178 0.0 
4.00148 4.05604 0.0 
3.98897 4.01586 0.0 
3.98962 4.01543 0.0 
3.43106 4.75793 0.0 
4.0039 4.03679 0.0 
3.14347 4.47206 0.0 
3.46424 4.77646 0.0 
3.95493 4.4757 0.0 
3.98515 4.03207 0.0 
3.13886 4.47041 0.0 
3.99925 4.0476 0.0 
3.95026 4.10811 0.0 
3.29432 4.65038 0.0 
3.94737 4.08348 0.0 
3.8066 4.75821 0.0 
4.00451 4.04472 0.0 
3.41779 4.74693 0.0 
3.32473 4.67909 0.0 
3.93854 4.07438 0.0 
3.12773 4.44462 0.0 
3.28622 4.64003 0.0 
3.99488 4.05857 0.0 
3.99544 4.09357 0.0 
3.46397 4.76197 0.0 
3.45566 4.75698 0.0 
3.24486 4.60743 0.0 
3.13891 4.49843 0.0 
3.13019 4.48729 0.0 
3.96012 4.06532 0.0 
3.85257 4.38814 0.0 
3.91307 4.15678 0.0 
3.12703 4.45766 0.0 
3.96434 4.05882 0.0 
3.12231 4.50374 0.0 
3.93591 4.51971 0.0 
3.2169 4.59814 0.0 
3.15411 4.49797 0.0 
3.14437 4.51897 0.0 
3.05926 4.3828 0.0 
3.16942 4.53995 0.0 
3.1286 4.44274 0.0 
3.1924 4.56917 0.0 
3.18382 4.56855 0.0 
3.93687 4.20768 0.0 
3.13066 4.50768 0.0 
3.64879 4.79164 0.0 
3.17011 4.51436 0.0 
3.18276 4.57877 0.0 
3.1152 4.48329 0.0 
3.05424 4.39719 0.0 
3.11124 4.46152 0.0 
3.14358 4.47565 0.0 
3.9375 4.25791 0.0 
3.11419 4.4722 0.0 
3.08237 4.42063 0.0 
3.13328 4.44642 0.0 
3.1277 4.49899 0.0 
3.97963 4.06307 0.0 
3.10617 4.42664 0.0 
3.14147 4.51072 0.0 
3.14613 4.52954 0.0 
3.11282 4.48712 0.0 
3.92588 4.54153 0.0 
3.12116 4.47524 0.0 
3.12517 4.4487 0.0 
3.09223 4.42843 0.0 
3.87644 4.32243 0.0 
3.0845 4.41372 0.0 
3.9495 4.18369 0.0 
3.95947 4.08734 0.0 
3.09337 4.43889 0.0 
3.14923 4.51028 0.0 
3.46986 4.75663 0.0 
3.95052 4.10135 0.0 
3.10358 4.46236 0.0 
3.10174 4.46772 0.0 
3.89426 4.27615 0.0 
3.34979 4.67974 0.0 
3.8705 4.66522 0.0 
3.9584 4.16436 0.0 
3.14928 4.51488 0.0 
3.09387 4.44791 0.0 
3.89039 4.32834 0.0 
[...]
<PointData>
  <DataArray type = "Float64" Name="Vitesse" NumberOfComponents="3" format="ascii">
0.582151 0.904926 0.0 
0.0231894 0.00123841 0.0 
0.975228 0.867691 0.0 
0.0187837 -0.0054519 0.0 
0.0194384 0.0175821 0.0 
3.12415e-25 2.92572e-26 0.0 
0.000413763 5.82087e-05 0.0 
2.02839e-23 1.3777e-24 0.0 
0.0394631 0.0165236 0.0 
0.00411373 0.000648248 0.0 
1.02683e-21 1.11659e-21 0.0 
0.00343084 0.000500459 0.0 
0.000206882 2.91043e-05 0.0 
2.51552e-24 1.64241e-25 0.0 
0.0818125 -0.0719976 0.0 
0.0172098 0.00448558 0.0 
0.03976 0.0127831 0.0 
1.00501e-21 -5.84066e-22 0.0 
0.0171494 0.00463417 0.0 
1.12158 0.842338 0.0 
-0.0403699 0.197571 0.0 
0.00194379 0.000580438 0.0 
1.12697 0.899255 0.0 
1.57188 0.109794 0.0 
0.022437 0.00171923 0.0 
-0.0434545 0.0701088 0.0 
1.10651 0.856861 0.0 
0.907604 0.767758 0.0 
1.41272 0.791054 0.0 
1.00656 0.819725 0.0 
1.81752e-22 1.82922e-22 0.0 
-0.0310796 0.0874452 0.0 
0.00416276 -0.00118987 0.0 
0.0160046 0.00254446 0.0 
1.01432 0.878998 0.0 
1.08237e-22 2.41535e-23 0.0 
0.148712 -0.115528 0.0 
0.0236253 -0.00780456 0.0 
0.0244127 -0.00770567 0.0 
0.0231997 -0.0042857 0.0 
0.0152623 -0.00125304 0.0 
9.02541e-06 2.85628e-06 0.0 
0.0156823 0.0182566 0.0 
0.00113794 0.00230856 0.0 
0.0152109 -0.0082233 0.0 
0.0338289 -0.0288667 0.0 
-8.495e-68 -3.0242e-68 0.0 
1.8525e-25 -2.75774e-25 0.0 
0.191576 -0.157104 0.0 
0.0285049 -0.00268328 0.0 
1.6721 0.551387 0.0 
0.0036608 0.000583916 0.0 
9.30098e-22 9.38147e-22 0.0 
0.0179922 -0.00303853 0.0 
0.0186761 0.00413863 0.0 
0.476322 0.189714 0.0 
0.409509 0.337636 0.0 
0.0481627 -0.00267818 0.0 
0.0170255 -0.0053237 0.0 
0.00341519 2.44193e-07 0.0 
0.0162765 -0.00665098 0.0 
5.49333e-26 -4.86185e-30 0.0 
0.016583 -0.00294849 0.0 
0.05896 0.0375133 0.0 
1.63553e-24 1.7495e-25 0.0 
-0.0134976 -0.00711067 0.0 
0.022429 0.00714205 0.0 
0.055703 0.00150687 0.0 
0.022427 0.107499 0.0 
0.00947266 -0.000505522 0.0 
-0.000500962 0.000854229 0.0 
0.00647283 0.00152333 0.0 
2.96909e-25 1.26168e-25 0.0 
-0.0105637 -0.00584016 0.0 
8.319e-05 1.26764e-05 0.0 
5.43525e-23 1.86844e-23 0.0 
0.00213891 0.000261032 0.0 
0.0216433 0.255933 0.0 
0.00713036 0.0148586 0.0 
0.0023657 0.000370944 0.0 
4.91648e-23 1.64002e-23 0.0 
1.15993 0.168454 0.0 
1.87188e-25 -2.93558e-26 0.0 
8.63968e-26 1.22404e-26 0.0 
0.0228592 0.00325936 0.0 
1.39191 0.684326 0.0 
0.00412886 0.000469783 0.0 
0.758427 -0.0843601 0.0 
0.000259543 1.28973e-05 0.0 
6.87941e-06 -1.11572e-07 0.0 
0.0462407 0.311083 0.0 
4.21903e-24 9.93266e-25 0.0 
1.36695 0.256659 0.0 
0.0462244 0.328813 0.0 
0.27605 0.024531 0.0 
0.00229226 -0.000339992 0.0 
0.106053 0.248895 0.0 
0.0221666 0.000687386 0.0 
0.0119922 0.00342182 0.0 
1.02699e-22 -2.53714e-23 0.0 
1.71161e-23 2.50593e-24 0.0 
0.0026101 -0.000346461 0.0 
1.57089 0.159147 0.0 
0.0212636 -0.00513917 0.0 
0.00408376 0.00339377 0.0 
0.000990918 0.00025826 0.0 
-0.0305926 0.154902 0.0 
0.0252324 0.329711 0.0 
-0.00213921 0.00347148 0.0 
0.0204951 0.00142591 0.0 
1.03992e-27 5.23331e-28 0.0 
6.1267e-05 -9.64223e-06 0.0 
0.00119115 0.000186773 0.0 
0.698987 -0.124289 0.0 
0.0104745 -0.00163329 0.0 
0.0871678 0.313881 0.0 
-0.0197809 0.131664 0.0 
1.2091e-22 5.47831e-24 0.0 
5.15485e-05 -1.02282e-06 0.0 
2.05504e-05 3.26938e-06 0.0 
1.29516 0.676273 0.0 
6.55928e-22 -4.26614e-22 0.0 
-0.0342572 0.00224572 0.0 
0.00569093 -0.000893586 0.0 
0.828191 0.654026 0.0 
0.00180244 -3.09265e-05 0.0 
0.295091 0.0688955 0.0 
0.00192323 -0.000357393 0.0 
2.03922e-39 3.85686e-40 0.0 
1.64402e-40 3.09568e-41 0.0 
2.36175e-23 -9.03212e-24 0.0 
0.0017479 4.17445e-05 0.0 
0.0130168 -0.00117914 0.0 
1.67712e-39 3.18499e-40 0.0 
0.0531812 0.350245 0.0 
0.018761 0.000153906 0.0 
0.765941 0.680781 0.0 
0.0598296 0.117944 0.0 
0.638748 0.553926 0.0 
0.0175371 -0.00308172 0.0 
1.46212 0.676356 0.0 
0.0198878 0.00352481 0.0 
0.877393 0.763473 0.0 
-0.0362747 0.15868 0.0 
0.000153039 1.48733e-05 0.0 
0.0224411 0.000266935 0.0 
2.69627e-21 -8.52162e-22 0.0 
0.323176 -0.0324098 0.0 
-0.00554753 0.00523547 0.0 
0.0200887 0.000576047 0.0 
0.855851 0.703149 0.0 
4.94431e-05 -9.27474e-06 0.0 
0.00222291 0.002584 0.0 
0.0168124 -0.00289014 0.0 
0.0352665 -0.000583732 0.0 
0.0237884 0.00255956 0.0 
0.00595003 0.216967 0.0 
0.0220807 -0.00426049 0.0 
1.16299 0.770799 0.0 
0.000371726 0.000141728 0.0 
0.00398197 -0.000739967 0.0 
1.30657 0.78971 0.0 
0.0228988 0.00843256 0.0 
-0.012124 0.0295036 0.0 
4.9681e-23 2.3132e-23 0.0 
0.015406 -0.00159115 0.0 
0.000524762 -2.16827e-05 0.0 
1.00437 0.781584 0.0 
0.728343 0.636243 0.0 
0.000322799 7.95598e-05 0.0 
0.000270209 4.84228e-05 0.0 
0.00195601 0.000130484 0.0 
0.00921711 -0.00171281 0.0 
0.0224373 0.318273 0.0 
2.19023e-45 2.38046e-46 0.0 
0.706659 0.593503 0.0 
2.99116e-24 5.03452e-25 0.0 
0.0169211 -0.00837326 0.0 
0.0163029 -0.00130125 0.0 
1.23218 0.617418 0.0 
1.21932 0.130514 0.0 
0.307172 0.646208 0.0 
0.0166976 -0.00141354 0.0 
1.38679e-22 -2.56161e-23 0.0 
0.579663 0.46215 0.0 
0.00179389 0.000273351 0.0 
1.52904 0.106942 0.0 
1.07366 0.623027 0.0 
5.41421e-25 1.29459e-25 0.0 
0.0242378 0.00957558 0.0 
8.82564e-06 1.5816e-06 0.0 
4.66484e-06 -1.42181e-07 0.0 
1.39988 0.138855 0.0 
7.315e-23 2.23171e-23 0.0 
1.53381 0.52465 0.0 
4.52977e-23 6.76367e-24 0.0 
0.327761 -0.295738 0.0 
5.7437e-23 1.87703e-23 0.0 
0.00205987 0.00023111 0.0 
3.86286e-23 3.56711e-24 0.0 
0.021313 -0.00336784 0.0 
0.0415489 0.0327552 0.0 
0.00459515 0.00113716 0.0 
0.943231 0.577324 0.0 
0.556543 0.958654 0.0 
6.77739e-22 5.69678e-22 0.0 
1.54231 0.41364 0.0 
0.000323008 -0.000153925 0.0 
0.0184174 0.0102074 0.0 
0.00587847 0.000312424 0.0 
0.806546 0.690678 0.0 
1.06912e-06 3.43728e-07 0.0 
0.00831804 0.0375112 0.0 
1.00421 0.754441 0.0 
0.000125858 -8.38902e-06 0.0 
0.00190468 0.000423484 0.0 
0.0101533 0.00153035 0.0 
4.72024e-23 -2.13145e-24 0.0 
1.22676e-25 3.5884e-26 0.0 
1.53145 0.215363 0.0 
0.0711396 0.0631296 0.0 
0.0277981 -0.00759124 0.0 
1.17833 0.826031 0.0 
1.15952 0.00128045 0.0 
1.55762 0.606644 0.0 
0.0066389 0.000447196 0.0 
1.59411 0.349902 0.0 
0.0719119 0.0832859 0.0 
1.31705 0.0840171 0.0 
7.69967e-23 8.81263e-24 0.0 
1.5036 0.032902 0.0 
0.110835 -0.0325552 0.0 
0.0429221 0.037636 0.0 
0.0743556 0.0755553 0.0 
1.47236 0.23623 0.0 
0.612843 -0.14801 0.0 
1.68866e-21 1.59207e-21 0.0 
0.0193828 0.000830968 0.0 
1.14285 0.632007 0.0 
0.000463266 6.16159e-05 0.0 
1.63595 0.521042 0.0 
0.00056259 0.000248237 0.0 
0.0669208 0.0374941 0.0 
1.49057e-21 1.42509e-21 0.0 
1.66211 0.43997 0.0 
1.23656 -0.0333249 0.0 
5.10947e-23 5.17233e-24 0.0 
0.676508 -0.183735 0.0 
3.82126e-37 4.06811e-37 0.0 
0.0672455 0.0089299 0.0 
7.13018e-23 1.79343e-23 0.0 
4.04934e-25 2.74862e-26 0.0 
0.0167778 -0.00262884 0.0 
3.76775e-07 -1.86687e-07 0.0 
0.367875 -0.104022 0.0 
0.818385 0.616278 0.0 
0.015617 -0.00387918 0.0 
9.06923e-06 4.3576e-06 0.0 
0.0315369 0.0250751 0.0 
6.40958e-23 3.22862e-24 0.0 
3.95236e-22 -2.45248e-22 0.0 
0.0207513 0.0012793 0.0 
0.0373982 0.0142391 0.0 
1.00094 0.887856 0.0 
1.64267 0.3119 0.0 
1.58096e-23 7.14098e-24 0.0 
1.62553 0.606609 0.0 
1.34346 0.307352 0.0 
3.5442e-25 3.66779e-25 0.0 
0.30895 -0.0672166 0.0 
1.14574 0.706259 0.0 
-9.67063e-69 -3.44273e-69 0.0 
0.0265453 -0.000302899 0.0 
0.0116374 -0.00657399 0.0 
0.368868 0.777585 0.0 
0.044855 0.0167403 0.0 
0.0204664 -0.00171142 0.0 
1.29458 0.361971 0.0 
0.945872 0.627146 0.0 
0.00955378 -0.00146245 0.0 
0.000143833 6.9109e-05 0.0 
0.0176069 0.0016675 0.0 
0.0230111 -0.000563242 0.0 
0.00947818 -0.00368224 0.0 
1.35271 0.289359 0.0 
0.0109112 -0.00328641 0.0 
1.06193 0.101292 0.0 
0.0394321 -0.00279961 0.0 
0.132057 -0.0764223 0.0 
3.97853e-21 1.11234e-21 0.0 
0.0142777 -0.00071418 0.0 
0.00957566 -0.00405302 0.0 
-0.00871992 0.0310955 0.0 
0.017172 0.00205746 0.0 
0.666092 0.959159 0.0 
0.235265 -0.149156 0.0 
0.46188 -0.140452 0.0 
0.708461 0.551101 0.0 
1.0173 0.729192 0.0 
1.12257e-22 1.38707e-23 0.0 
1.45814e-21 -9.62434e-22 0.0 
9.35804e-06 -4.6368e-06 0.0 
0.477202 0.896712 0.0 
0.00768094 -0.00415368 0.0 
0.00209794 1.41242e-05 0.0 
-0.0123393 -0.00690428 0.0 
8.56417e-07 2.26773e-07 0.0 
0.0143991 -0.00645003 0.0 
0.00292515 0.000398595 0.0 
-0.0122881 -0.00226934 0.0 
0.0232938 -0.00699693 0.0 
1.11847e-05 2.00435e-06 0.0 
-0.0372836 0.145671 0.0 
1.35649 0.53038 0.0 
3.40029e-22 -2.46844e-22 0.0 
5.19598e-23 1.40687e-23 0.0 
1.48418 0.725609 0.0 
-0.0480414 0.122085 0.0 
1.40619e-21 1.05705e-21 0.0 
2.52673e-23 1.00246e-23 0.0 
0.00413467 -9.1648e-05 0.0 
0.0222322 -0.00602083 0.0 
0.0321373 0.0267015 0.0 
5.92339e-47 6.43786e-48 0.0 
0.0101551 -0.00588127 0.0 
0.0636139 0.0326971 0.0 
0.0251639 -0.00434294 0.0 
0.0695382 0.0471182 0.0 
1.46924 0.452108 0.0 
0.950933 0.666312 0.0 
5.69986e-23 1.86308e-23 0.0 
0.942507 -0.0519031 0.0 
0.113011 -0.061856 0.0 
1.60402e-23 3.58375e-24 0.0 
0.140056 -0.0480135 0.0 
0.0220085 -0.000277564 0.0 
0.0215357 -0.00465275 0.0 
-0.00609998 0.0160901 0.0 
0.801452 0.924759 0.0 
0.859102 -0.0504019 0.0 
0.167333 -0.106088 0.0 
0.049467 -0.0255864 0.0 
0.0180745 0.00624241 0.0 
-0.0375819 0.125255 0.0 
0.524251 -0.0350979 0.0 
0.00922232 0.00205326 0.0 
0.00760373 0.223225 0.0 
0.0230835 -0.00618249 0.0 
0.0135309 0.000895113 0.0 
1.63173 0.224432 0.0 
-0.0184953 0.171471 0.0 
0.00053806 0.000953836 0.0 
0.0159593 -0.000100291 0.0 
0.12 -0.0328266 0.0 
0.198233 -0.0256755 0.0 
-0.0167952 0.182953 0.0 
0.158141 0.0338651 0.0 
0.00131743 0.0837545 0.0 
-0.0618839 0.0680524 0.0 
0.507156 -0.039919 0.0 
0.0157632 -0.00505769 0.0 
0.0169324 -0.00252363 0.0 
1.03769 0.691416 0.0 
0.0125217 -0.0026583 0.0 
2.17562e-23 1.24762e-24 0.0 
0.0234618 -0.00214627 0.0 
0.00216462 0.000339013 0.0 
-0.0608157 0.0395124 0.0 
3.09162e-11 -1.47326e-11 0.0 
0.0186961 -0.00600933 0.0 
0.0106167 0.000369351 0.0 
0.0160489 -0.000132171 0.0 
-0.042452 0.111466 0.0 
0.0147251 -0.00637671 0.0 
0.0363573 0.0169814 0.0 
1.4288e-05 6.74471e-06 0.0 
-7.78266e-05 0.00113198 0.0 
7.71457e-22 -5.65775e-22 0.0 
0.000461745 -5.4088e-05 0.0 
0.0143438 -0.000507865 0.0 
1.58904e-22 -1.16344e-22 0.0 
-0.0295625 0.146164 0.0 
0.021059 -0.00634724 0.0 
0.0698683 0.152695 0.0 
0.000301714 -0.000143777 0.0 
0.0140662 -0.00607533 0.0 
6.40239e-06 8.48211e-07 0.0 
0.0104865 -0.00426026 0.0 
0.00786235 -0.00155457 0.0 
1.42269 0.742606 0.0 
0.000119448 7.90186e-06 0.0 
-0.0271475 0.0045522 0.0 
1.55914 0.685887 0.0 
1.17436e-22 -4.98265e-23 0.0 
0.00252737 -0.000117221 0.0 
-0.0298013 0.0325654 0.0 
2.47751e-25 1.60455e-26 0.0 
0.0178643 9.49534e-05 0.0 
0.646634 0.52882 0.0 
0.0201211 -0.00478322 0.0 
0.275248 -0.104388 0.0 
0.000736591 0.000117185 0.0 
1.30993 0.736239 0.0 
0.867646 0.663163 0.0 
0.0232706 -0.00688471 0.0 
-0.0523651 0.101925 0.0 
0.450043 0.377945 0.0 
6.26106e-42 1.16498e-42 0.0 
2.4061e-40 6.79583e-41 0.0 
0.922922 0.463674 0.0 
0.879155 0.442529 0.0 
0.525988 0.461451 0.0 
0.0208669 0.0247755 0.0 
0.135192 0.308753 0.0 
0.0226551 -0.00526749 0.0 
0.0492085 0.0386637 0.0 
0.0213675 0.00119554 0.0 
-0.0595514 0.150149 0.0 
0.0224777 -0.00358039 0.0 
0.669667 0.975356 0.0 
1.82996e-22 -9.32395e-23 0.0 
0.942633 0.827262 0.0 
0.00666069 0.0130021 0.0 
0.667748 0.776877 0.0 
0.225991 0.616331 0.0 
0.575133 0.619685 0.0 
-0.0527054 0.0915917 0.0 
0.780513 0.745803 0.0 
0.867979 0.843417 0.0 
0.0222369 0.00782616 0.0 
0.662497 0.91101 0.0 
0.0623438 0.0069689 0.0 
2.69383e-23 2.80086e-23 0.0 
0.963276 0.92163 0.0 
0.467633 0.883645 0.0 
0.294774 0.70033 0.0 
0.230845 0.634926 0.0 
-0.0112635 0.00868498 0.0 
5.39216e-27 2.71355e-27 0.0 
0.31761 0.731306 0.0 
0.231152 0.650846 0.0 
-0.0653229 0.069135 0.0 
0.555625 0.8336 0.0 
0.0106461 6.42137e-05 0.0 
0.0182508 0.277096 0.0 
0.575759 0.70025 0.0 
0.821631 0.913886 0.0 
0.556147 0.975124 0.0 
1.86499e-22 -9.81783e-23 0.0 
0.240207 0.600724 0.0 
-0.0492652 0.13811 0.0 
0.182425 0.580144 0.0 
0.0335766 0.0266639 0.0 
0.168133 0.552642 0.0 
0.00523735 0.0016064 0.0 
0.0169572 -0.00339153 0.0 
0.246155 0.680178 0.0 
0.159494 0.18636 0.0 
0.190381 0.0899735 0.0 
0.0175767 -0.00115999 0.0 
0.353567 0.801862 0.0 
0.435272 0.880618 0.0 
0.0361631 0.0192667 0.0 
8.30579e-22 6.43356e-22 0.0 
6.88605e-22 -5.95118e-22 0.0 
2.07282e-44 1.02331e-44 0.0 
0.394163 0.466477 0.0 
0.318289 0.7688 0.0 
0.0297468 0.024294 0.0 
0.298486 0.744465 0.0 
0.000352263 2.84091e-05 0.0 
1.42408e-45 2.65234e-46 0.0 
0.803726 0.971885 0.0 
0.0742311 0.0554209 0.0 
0.212924 0.613654 0.0 
0.335156 0.770215 0.0 
0.209083 0.623448 0.0 
0.0150202 -0.000235422 0.0 
0.282867 0.724335 0.0 
0.227224 -0.166291 0.0 
0.0240612 0.00989143 0.0 
0.0942406 0.423397 0.0 
0.934861 0.93383 0.0 
0.403661 0.762184 0.0 
0.0319556 0.0293088 0.0 
0.563508 0.645031 0.0 
0.728868 0.997905 0.0 
0.0248701 0.013316 0.0 
0.709027 0.759794 0.0 
0.285425 0.702613 0.0 
0.969252 0.894661 0.0 
0.320512 0.691969 0.0 
0.0268746 0.0120974 0.0 
1.49472e-26 7.52204e-27 0.0 
0.368304 0.0411697 0.0 
0.0169312 0.0057325 0.0 
0.268573 0.692629 0.0 
0.473046 0.723255 0.0 
0.0171651 -0.00335028 0.0 
-0.0314908 0.177192 0.0 
0.223536 0.423245 0.0 
0.0493664 0.0329036 0.0 
0.415322 0.798571 0.0 
0.656708 0.661287 0.0 
0.163685 0.525808 0.0 
0.27841 0.337822 0.0 
-0.0144587 0.212103 0.0 
0.187034 0.591084 0.0 
0.389064 0.816304 0.0 
0.426286 0.301856 0.0 
-8.1142e-59 -1.93014e-59 0.0 
0.231345 0.165312 0.0 
0.109482 0.097832 0.0 
0.0208859 -0.0041568 0.0 
0.0147028 -0.00156838 0.0 
0.0863138 0.076754 0.0 
1.7178e-21 1.63696e-21 0.0 
2.12116e-25 4.15711e-26 0.0 
-0.0426396 0.0178216 0.0 
2.36932e-42 4.83121e-43 0.0 
0.00137814 -0.000685243 0.0 
0.00348247 0.000123423 0.0 
0.279248 0.130136 0.0 
0.000731945 0.0400243 0.0 
5.82592e-30 3.85675e-32 0.0 
-7.82747e-97 -2.2496e-97 0.0 
0.415519 0.323981 0.0 
2.13708e-21 2.02342e-21 0.0 
0.0320878 0.0046474 0.0 
0.278919 0.270609 0.0 
0.578065 0.345148 0.0 
-0.000658165 0.0167736 0.0 
1.83283e-22 2.61389e-23 0.0 
0.0248926 0.0101201 0.0 
6.61023e-45 7.55914e-46 0.0 
0.399125 0.354333 0.0 
0.0236376 0.00941198 0.0 
0.326466 0.269058 0.0 
0.00160522 -0.000280743 0.0 
1.8106e-21 -1.05309e-21 0.0 
7.73402e-27 5.44025e-28 0.0 
1.06132 0.891989 0.0 
0.0179008 -0.00466617 0.0 
0.905601 0.947834 0.0 
2.57487e-27 1.11509e-28 0.0 
0.217746 0.193219 0.0 
0.396064 0.85857 0.0 
2.78416e-07 4.98935e-08 0.0 
1.3273e-41 3.85608e-42 0.0 
3.43639e-42 3.91889e-43 0.0 
0.367155 0.281 0.0 
0.0322581 0.01316 0.0 
0.454836 0.290282 0.0 
0.0582856 0.35698 0.0 
0.0217185 -0.00388942 0.0 
-0.054232 0.0773977 0.0 
0.252056 0.209214 0.0 
8.89333e-27 -1.0651e-30 0.0 
1.83651e-21 1.76964e-21 0.0 
0.0808105 0.0409734 0.0 
3.55851e-24 1.09353e-24 0.0 
2.09915e-23 -2.35541e-26 0.0 
0.0241911 -0.015337 0.0 
0.0301901 0.017938 0.0 
2.03835e-45 5.46605e-46 0.0 
2.98087e-40 3.40877e-41 0.0 
2.07234e-40 3.91679e-41 0.0 
1.29841e-27 -9.5892e-31 0.0 
0.321362 -0.272113 0.0 
0.0226645 0.00167108 0.0 
0.121195 0.10693 0.0 
0.0169067 -0.00238344 0.0 
0.332869 0.365103 0.0 
1.19361 0.419164 0.0 
0.341342 0.393284 0.0 
0.0359027 0.0315199 0.0 
0.0358652 0.000335923 0.0 
0.553672 0.470875 0.0 
8.57302e-28 5.57867e-29 0.0 
0.00861102 -0.00701986 0.0 
6.74867e-42 7.71745e-43 0.0 
8.88451e-43 2.54347e-43 0.0 
0.130784 0.116133 0.0 
0.000282349 0.000108557 0.0 
6.87304e-41 7.85968e-42 0.0 
-6.18769e-75 -2.72118e-75 0.0 
0.0987655 0.152236 0.0 
1.75813e-42 2.01052e-43 0.0 
1.12212 -0.141369 0.0 
-8.68368e-76 -2.96541e-76 0.0 
-0.0197717 0.169568 0.0 
9.15281e-06 6.10879e-08 0.0 
0.00159768 -0.00140928 0.0 
6.60129e-22 -5.42683e-22 0.0 
0.904614 0.599804 0.0 
2.41595e-22 -9.99938e-23 0.0 
0.143014 0.120339 0.0 
0.00998066 -0.00880371 0.0 
0.158148 0.140431 0.0 
0.00336712 -0.00151808 0.0 
0.000393435 0.00018362 0.0 
6.54405e-43 1.16516e-43 0.0 
0.832169 0.0913228 0.0 
0.0415007 0.0356387 0.0 
2.06269e-22 -7.43225e-23 0.0 
4.3488e-28 4.49147e-29 0.0 
0.2953 0.247988 0.0 
-0.0519725 0.0856514 0.0 
4.64245e-46 1.31956e-47 0.0 
2.17786e-25 8.13714e-26 0.0 
-0.00760762 0.010615 0.0 
6.75615e-24 -7.72553e-25 0.0 
1.11207e-28 -2.13553e-30 0.0 
5.0404e-24 1.87752e-24 0.0 
-0.0529345 0.0159122 0.0 
0.379575 0.340787 0.0 
1.02114 0.118477 0.0 
5.40574e-23 7.71644e-24 0.0 
0.0680613 0.0579858 0.0 
0.019747 -0.00371316 0.0 
0.0127623 0.00915551 0.0 
0.0623259 0.0198796 0.0 
0.136649 0.11265 0.0 
0.734617 0.0928602 0.0 
0.763674 0.443419 0.0 
0.00262262 -0.00130864 0.0 
5.22274e-09 4.33633e-09 0.0 
3.98445e-24 8.80934e-25 0.0 
0.382529 0.225351 0.0 
0.000716479 -8.88336e-06 0.0 
0.0200947 0.00687707 0.0 
0.506295 0.0505595 0.0 
0.572511 0.276843 0.0 
0.804162 0.097415 0.0 
0.194579 0.155608 0.0 
3.54359e-22 -2.71432e-22 0.0 
0.0063919 0.00568621 0.0 
-0.00598717 0.00637802 0.0 
-0.037553 0.19383 0.0 
0.103462 0.0752767 0.0 
0.118792 0.0986671 0.0 
8.8237e-23 3.64628e-24 0.0 
1.60386e-23 4.20769e-24 0.0 
0.843532 0.274113 0.0 
0.775037 -0.260595 0.0 
0.0152125 0.00488947 0.0 
1.31354e-05 1.52692e-05 0.0 
0.646546 0.327267 0.0 
3.38835e-07 -5.49532e-09 0.0 
0.72817 0.14575 0.0 
0.00219768 7.00378e-05 0.0 
0.0021857 0.0033686 0.0 
0.48725 0.423406 0.0 
0.0229152 0.0197416 0.0 
0.461339 0.193928 0.0 
2.06459e-24 3.75507e-25 0.0 
4.41866e-23 6.22233e-24 0.0 
1.08481e-43 1.93149e-44 0.0 
1.20498 0.538893 0.0 
-0.0698704 0.044661 0.0 
1.40726e-06 -2.28234e-08 0.0 
1.89858e-21 1.87694e-21 0.0 
0.0210945 -0.00018058 0.0 
-0.0108833 0.0125287 0.0 
0.894689 0.152688 0.0 
0.115083 0.0950622 0.0 
0.0224351 0.0125927 0.0 
0.0253583 0.00833852 0.0 
1.02074 0.32882 0.0 
0.0164044 -0.000757227 0.0 
0.145125 0.168699 0.0 
0.00676642 0.00604297 0.0 
0.593606 0.155916 0.0 
6.06889e-26 2.40429e-26 0.0 
2.44043e-38 7.63664e-39 0.0 
0.0225684 0.00377387 0.0 
-0.0472189 0.101385 0.0 
1.1352e-08 -5.40964e-09 0.0 
2.57224e-25 -2.94595e-26 0.0 
0.511226 0.258477 0.0 
0.643679 0.346484 0.0 
0.0126958 -0.00337318 0.0 
0.0130629 -0.00276479 0.0 
2.69346e-21 -9.14601e-22 0.0 
5.22041e-43 1.3578e-43 0.0 
0.804205 0.448525 0.0 
0.0112024 -0.00189924 0.0 
-0.0410737 0.128364 0.0 
0.00149469 0.000589704 0.0 
6.57324e-29 1.49753e-29 0.0 
6.93244e-23 -4.83971e-23 0.0 
0.347603 0.202282 0.0 
0.0246073 -0.00039039 0.0 
1.2223e-21 1.14069e-21 0.0 
0.175985 0.133684 0.0 
0.640209 0.224352 0.0 
0.291171 0.237297 0.0 
0.0222939 0.0107555 0.0 
0.00905474 0.006866 0.0 
0.476944 0.0673608 0.0 
1.88702e-41 2.1579e-42 0.0 
4.23236e-21 1.12409e-21 0.0 
0.131641 0.112405 0.0 
0.263414 0.157894 0.0 
-0.00388529 0.000311471 0.0 
0.154018 0.13613 0.0 
0.00397397 0.00137448 0.0 
0.00808559 0.00227597 0.0 
0.00420631 0.00362543 0.0 
0.0272377 0.0171035 0.0 
7.27141e-23 -5.45988e-23 0.0 
0.787644 0.567305 0.0 
2.89678e-44 9.1425e-46 0.0 
0.196583 0.144011 0.0 
0.00352334 0.00133091 0.0 
7.22407e-23 -9.92643e-24 0.0 
-0.0264324 0.0128909 0.0 
0.0239835 0.00712274 0.0 
0.647898 0.476635 0.0 
3.98447e-27 -2.45884e-28 0.0 
1.3808e-44 2.57173e-45 0.0 
0.260388 0.177639 0.0 
0.117208 0.0407812 0.0 
0.0664516 -0.0272492 0.0 
0.604604 0.352729 0.0 
1.25312e-24 5.18057e-25 0.0 
0.0423524 0.0355574 0.0 
0.590097 0.0254936 0.0 
0.018421 -0.00493027 0.0 
0.020299 0.00229968 0.0 
0.0166467 0.000422425 0.0 
0.0222675 -0.00423445 0.0 
0.0237746 0.00226217 0.0 
0.0238419 -0.00107099 0.0 
-0.00304312 0.00916164 0.0 
1.29018e-21 1.42583e-21 0.0 
0.000283892 -9.45401e-05 0.0 
0.00438831 -0.00209118 0.0 
0.00431295 -2.77377e-05 0.0 
0.0188389 -0.00196226 0.0 
0.0191627 0.00465553 0.0 
0.00909948 0.00361704 0.0 
0.0074919 4.13469e-05 0.0 
0.0222386 -0.00252538 0.0 
0.523457 0.521744 0.0 
0.0184778 -0.00457318 0.0 
5.55943e-22 -5.33071e-22 0.0 
2.74282e-23 -6.00148e-24 0.0 
1.4494e-28 7.29398e-29 0.0 
0.0163836 0.00196647 0.0 
0.0167367 -0.00261023 0.0 
1.72717e-21 -8.3935e-22 0.0 
0.014081 -0.00178147 0.0 
0.0127126 -0.00531904 0.0 
4.93697e-41 5.64567e-42 0.0 
2.12429e-21 -1.00026e-21 0.0 
0.561747 0.49883 0.0 
-0.00745113 0.00741529 0.0 
0.023197 -0.0018161 0.0 
0.0200896 0.000595871 0.0 
0.220506 -0.0603207 0.0 
-0.0164443 -0.00738041 0.0 
0.0225933 0.00041737 0.0 
0.0182549 -0.000583312 0.0 
0.444868 0.361172 0.0 
-0.0608564 0.157136 0.0 
0.00857691 0.00143885 0.0 