<VTKFile type="UnstructuredGrid" version="0.1" byte_order="LittleEndian">
  <UnstructuredGrid>
    <Piece NumberOfPoints="13971" NumberOfCells="27790">
      <Points>
        <DataArray type = "Float64" NumberOfComponents="3" format="ascii">
0 0 0.0 
14 0 0.0 
14 8 0.0 
0 8 0.0 
4.52556 3.86404 0.0 
4.9632 4.01448 0.0 
5.15553 4.02606 0.0 
11.5565 3.82328 0.0 
4.01347 3.94819 0.0 
4.214 3.90493 0.0 
4.85762 3.99025 0.0 
4.6932 4.07079 0.0 
4.87457 3.99163 0.0 
4.43733 4.07625 0.0 
4.11752 3.96597 0.0 
3.94114 4.15344 0.0 
4.26767 3.9533 0.0 
4.89707 3.99312 0.0 
4.30047 4.08069 0.0 
4.96592 4.01902 0.0 
8.40909 0 0.0 
4.79858 4.05061 0.0 
4.39709 4.07855 0.0 
5.05172 3.98935 0.0 
4.04371 4.02248 0.0 
4.01063 1.6773 0.0 
4.09728 3.9695 0.0 
7.58966 3.93967 0.0 
3.96604 4.23696 0.0 
4.06288 4.03688 0.0 
4.33109 3.95575 0.0 
4.06005 4.03579 0.0 
4.23501 4.06481 0.0 
4.44433 4.07968 0.0 
4.93526 4.02765 0.0 
5.65305 4.05325 0.0 
4.17179 3.97032 0.0 
4.41268 3.9896 0.0 
4.83823 4.02877 0.0 
4.09422 4.06655 0.0 
4.85628 3.99281 0.0 
4.40845 4.077 0.0 
4.14214 3.96799 0.0 
4.18875 3.93918 0.0 
4.51194 4.04817 0.0 
4.62636 4.05397 0.0 
4.64458 3.95384 0.0 
7.79324 4.24506 0.0 
4.17515 4.06183 0.0 
4.05789 4.06544 0.0 
4.10075 4.03591 0.0 
4.96888 3.99633 0.0 
4.41752 3.90265 0.0 
5.10155 4.0391 0.0 
3.92009 4.22285 0.0 
4.09973 4.06883 0.0 
4.51974 3.97572 0.0 
4.0631 3.94627 0.0 
4.09324 4.07263 0.0 
4.48463 4.0392 0.0 
5.01594 3.97412 0.0 
3.95132 3.92388 0.0 
6.07082 3.104 0.0 
4.07918 3.97615 0.0 
4.06915 4.04534 0.0 
4.21041 4.06744 0.0 
5.66149 4.13166 0.0 
4.08538 4.02507 0.0 
4.85214 4.03827 0.0 
4.4207 4.06813 0.0 
1.5808 4.3992 0.0 
3.99368 4.01426 0.0 
4.81388 4.03052 0.0 
4.04073 4.00277 0.0 
4.07686 3.98202 0.0 
4.94587 4.02527 0.0 
4.68997 4.06336 0.0 
4.70666 4.03293 0.0 
5.03044 4.01281 0.0 
4.84156 4.0088 0.0 
4.58916 4.05925 0.0 
4.4004 4.127 0.0 
5.00489 4.02516 0.0 
5.11865 3.98881 0.0 
4.48341 4.0268 0.0 
4.09424 4.05815 0.0 
4.98031 4.02036 0.0 
3.99988 3.98708 0.0 
4.06417 3.99461 0.0 
4.21788 3.91237 0.0 
4.5104 4.08178 0.0 
4.37174 4.07229 0.0 
4.48312 3.97408 0.0 
5.02574 4.00669 0.0 
5.41058 3.85489 0.0 
10.5547 3.45901 0.0 
5.03788 3.97658 0.0 
4.64428 4.05238 0.0 
5.65997 4.03733 0.0 
0 2.35318 0.0 
4.9686 4.01623 0.0 
4.79578 3.98782 0.0 
4.69215 4.04691 0.0 
4.05702 4.01158 0.0 
8.16149 3.88892 0.0 
4.95161 3.9856 0.0 
4.4258 3.96446 0.0 
4.41247 4.07232 0.0 
4.21993 4.06217 0.0 
4.33994 4.05525 0.0 
4.18569 3.91509 0.0 
4.25453 3.96586 0.0 
4.17786 4.07881 0.0 
4.8138 4.0065 0.0 
5.04607 4.02448 0.0 
4.1628 3.94775 0.0 
4.63833 3.96699 0.0 
5.09798 4.0273 0.0 
4.89606 4.00786 0.0 
4.08831 4.06631 0.0 
4.14393 3.94806 0.0 
6.04158 4.01215 0.0 
4.01925 4.05221 0.0 
4.4175 4.12976 0.0 
4.65905 4.0626 0.0 
4.075 3.94358 0.0 
4.35158 4.11683 0.0 
4.32012 3.95203 0.0 
4.91737 4.00518 0.0 
4.48133 3.98582 0.0 
5.01116 4.01057 0.0 
4.01526 4.02171 0.0 
4.6936 3.97047 0.0 
4.52576 4.0968 0.0 
4.76597 4.05418 0.0 
5.0786 4.01053 0.0 
4.05664 3.97681 0.0 
3.97234 4.03785 0.0 
4.8204 4.03143 0.0 
4.14165 4.07849 0.0 
5.00576 3.98835 0.0 
4.26167 4.12093 0.0 
4.17162 3.92432 0.0 
5.03627 3.96239 0.0 
4.82341 4.02013 0.0 
0 5.51105 0.0 
4.98971 4.00888 0.0 
4.03357 3.99646 0.0 
3.96707 3.95086 0.0 
4.99603 3.97729 0.0 
4.00273 4.05728 0.0 
4.51889 3.9596 0.0 
4.89711 4.00936 0.0 
4.00748 4.00932 0.0 
4.25672 3.97834 0.0 
4.05664 3.81012 0.0 
4.95286 4.03879 0.0 
4.74707 3.98536 0.0 
4.0089 3.92893 0.0 
4.59634 4.08797 0.0 
4.79039 4.04828 0.0 
5.09719 4.01632 0.0 
3.98172 4.06844 0.0 
4.24915 4.05618 0.0 
5.11867 4.03418 0.0 
4.43225 4.08714 0.0 
4.81338 3.97625 0.0 
4.26747 4.03967 0.0 
4.20385 4.09167 0.0 
4.9912 4.02804 0.0 
5.90833 4.24404 0.0 
7.60048 2.94661 0.0 
5.07235 3.99531 0.0 
4.52939 3.97214 0.0 
4.52138 3.97613 0.0 
4.98997 4.02393 0.0 
8.95282 7.51699 0.0 
4.78686 4.01555 0.0 
5.01943 4.02273 0.0 
3.96199 4.03038 0.0 
5.04864 4.04382 0.0 
4.1584 4.03851 0.0 
4.5868 3.96656 0.0 
4.25228 4.06387 0.0 
4.6672 4.06821 0.0 
4.18813 4.09432 0.0 
4.88438 4.03747 0.0 
5.03245 3.98297 0.0 
5.03899 4.01992 0.0 
4.7348 4.06772 0.0 
4.05517 4.04952 0.0 
4.58949 4.05416 0.0 
4.08146 3.99499 0.0 
4.1511 4.07689 0.0 
3.99439 4.02858 0.0 
4.4027 4.06153 0.0 
4.02985 4.02295 0.0 
4.63763 4.0403 0.0 
5.05402 4.03163 0.0 
4.3147 4.06884 0.0 
4.42983 3.96887 0.0 
4.16902 3.98151 0.0 
4.44096 3.94686 0.0 
4.9008 4.03159 0.0 
4.11763 4.04808 0.0 
4.25158 3.98522 0.0 
4.20065 3.96339 0.0 
4.65837 4.07479 0.0 
4.04219 4.00834 0.0 
8.35446 2.54104 0.0 
4.213 4.06906 0.0 
4.60948 3.96743 0.0 
5.0636 3.98872 0.0 
4.29259 4.04824 0.0 
4.0393 4.0303 0.0 
3.98273 4.00621 0.0 
3.99543 4.04517 0.0 
4.1642 4.06029 0.0 
4.98107 3.97981 0.0 
4.63451 4.0786 0.0 
5.03571 4.00684 0.0 
5.10865 4.0171 0.0 
4.78203 4.03555 0.0 
4.98218 4.02738 0.0 
4.9497 4.01015 0.0 
7.24381 3.93832 0.0 
4.27406 4.08825 0.0 
3.95046 4.00001 0.0 
4.61423 4.05602 0.0 
4.22383 4.06305 0.0 
4.17478 4.06935 0.0 
4.95726 3.98508 0.0 
4.66041 4.05125 0.0 
5.15771 3.9871 0.0 
4.27462 4.13782 0.0 
4.76181 4.05781 0.0 
7.10688 3.81214 0.0 
4.32671 4.06278 0.0 
4.78454 4.04476 0.0 
3.98227 4.04617 0.0 
4.94679 4.01295 0.0 
4.41474 4.04955 0.0 
4.8593 3.99295 0.0 
4.0583 3.981 0.0 
4.10116 3.97726 0.0 
4.75268 3.98185 0.0 
4.32021 4.06955 0.0 
3.97238 3.87987 0.0 
4.98463 4.01475 0.0 
4.88474 4.04745 0.0 
4.69843 3.98491 0.0 
5.00134 4.00081 0.0 
4.53895 4.06266 0.0 
4.37317 4.11564 0.0 
4.60899 3.87673 0.0 
4.35704 3.96966 0.0 
3.99336 3.97236 0.0 
5.01224 3.97834 0.0 
4.02873 4.02055 0.0 
4.59701 4.0654 0.0 
4.30568 4.07247 0.0 
4.31914 3.96934 0.0 
4.03283 4.06047 0.0 
4.56111 4.06807 0.0 
4.35796 4.07079 0.0 
4.48911 4.09196 0.0 
4.84631 4.04045 0.0 
4.16838 4.0885 0.0 
4.2939 4.08249 0.0 
4.59443 3.98112 0.0 
4.40159 3.88603 0.0 
4.44728 3.99595 0.0 
4.13251 4.05883 0.0 
4.45695 4.07916 0.0 
4.71242 4.05508 0.0 
4.5612 4.06275 0.0 
4.12639 4.05926 0.0 
4.58792 3.97755 0.0 
6.15869 4.20766 0.0 
4.02105 4.04639 0.0 
4.28115 4.08293 0.0 
4.25325 4.08014 0.0 
3.8957 4.03142 0.0 
4.02949 3.97629 0.0 
4.96571 3.99129 0.0 
4.98174 4.03773 0.0 
4.24133 4.05308 0.0 
4.58131 4.05971 0.0 
5.41804 4.02599 0.0 
3.9871 3.98426 0.0 
4.84425 4.02881 0.0 
4.65614 3.98051 0.0 
5.29122 4.14953 0.0 
5.86086 3.89107 0.0 
4.00975 4.04675 0.0 
4.23957 4.1146 0.0 
4.51083 4.0644 0.0 
2.67239 0 0.0 
4.06702 3.97153 0.0 
4.58106 4.05898 0.0 
4.76901 3.98055 0.0 
4.29816 4.08875 0.0 
4.11193 3.9679 0.0 
4.53289 3.95491 0.0 
4.03695 4.06573 0.0 
4.67014 4.07643 0.0 
4.76725 3.9856 0.0 
5.8622 0.652372 0.0 
5.32214 4.1703 0.0 
4.23233 4.101 0.0 
4.25288 4.08703 0.0 
4.20051 4.07495 0.0 
4.3702 4.09183 0.0 
4.18755 4.11048 0.0 
4.67004 4.05045 0.0 
4.49695 4.05573 0.0 
3.98712 4.04304 0.0 
4.29625 3.95054 0.0 
4.71035 4.02722 0.0 
4.26092 4.08083 0.0 
4.06818 4.05086 0.0 
8.75684 0.585272 0.0 
4.20438 4.04613 0.0 
4.76374 3.96889 0.0 
4.24217 3.93273 0.0 
4.94623 3.99502 0.0 
4.99347 4.02007 0.0 
3.98742 4.01904 0.0 
4.00749 3.97714 0.0 
4.34889 3.94164 0.0 
4.00488 3.99671 0.0 
3.99745 3.98902 0.0 
4.8481 3.97473 0.0 
4.57133 4.0694 0.0 
4.19168 3.92984 0.0 
4.0277 4.00858 0.0 
4.36699 4.07544 0.0 
4.80811 4.04482 0.0 
4.44463 4.05451 0.0 
3.9788 4.01158 0.0 
4.10353 4.04265 0.0 
4.82329 3.98878 0.0 
4.00854 4.04134 0.0 
4.07198 4.07393 0.0 
4.43854 4.04123 0.0 
4.00489 3.99798 0.0 
4.00691 3.98947 0.0 
4.29308 4.05407 0.0 
5.00162 3.97999 0.0 
4.689 4.06029 0.0 
4.03118 4.02797 0.0 
4.71663 4.04567 0.0 
4.47599 4.07396 0.0 
4.44148 4.05214 0.0 
4.25008 4.04533 0.0 
4.01307 3.98609 0.0 
4.01731 3.97083 0.0 
4.17471 4.08709 0.0 
4.24651 4.05075 0.0 
4.09154 3.93527 0.0 
4.03091 3.97176 0.0 
4.6559 7.60199 0.0 
4.24196 3.98731 0.0 
4.10803 3.99306 0.0 
4.43732 3.96549 0.0 
6.11071 3.87473 0.0 
5.05181 3.97629 0.0 
3.99835 4.02918 0.0 
12.2764 4.67793 0.0 
4.56464 3.97769 0.0 
4.02233 3.98752 0.0 
4.27135 3.93977 0.0 
5.3262 4.0473 0.0 
5.05532 3.96524 0.0 
4.28318 3.97598 0.0 
8.54773 4.58794 0.0 
3.99623 4.03627 0.0 
4.03277 4.00935 0.0 
4.05133 4.02283 0.0 
4.40207 3.98162 0.0 
3.9831 3.93993 0.0 
8.4507 4.28679 0.0 
4.5441 3.98033 0.0 
4.1755 3.94311 0.0 
4.66774 4.0651 0.0 
4.0781 3.98964 0.0 
4.22361 4.04691 0.0 
4.02759 4.00199 0.0 
4.63454 4.05528 0.0 
4.79801 3.97001 0.0 
4.0075 3.98798 0.0 
4.24692 3.97915 0.0 
4.00652 4.03234 0.0 
4.20065 3.95771 0.0 
5.61737 3.88898 0.0 
4.83362 4.03868 0.0 
4.98228 4.02307 0.0 
4.00427 4.04292 0.0 
4.19027 3.96575 0.0 
4.31174 4.0486 0.0 
4.12905 3.94147 0.0 
4.99643 3.98691 0.0 
3.99047 3.98781 0.0 
4.97705 4.00586 0.0 
4.3916 3.89651 0.0 
5.29299 4.04736 0.0 
4.04839 4.01492 0.0 
4.34627 3.98181 0.0 
4.65783 4.05146 0.0 
3.89305 4.01486 0.0 
4.49837 4.06526 0.0 
4.98996 3.97879 0.0 
4.37694 4.12818 0.0 
4.67713 4.0462 0.0 
4.72886 3.98393 0.0 
4.66173 3.98253 0.0 
4.29004 4.08476 0.0 
4.00671 4.06674 0.0 
4.95618 3.99689 0.0 
4.36442 4.08817 0.0 
4.50259 4.09981 0.0 
4.1401 3.98497 0.0 
4.10988 3.95698 0.0 
4.01284 3.99994 0.0 
4.54898 4.06251 0.0 
4.04131 3.99766 0.0 
4.21208 4.09607 0.0 
4.30676 3.95399 0.0 
5.03609 3.98885 0.0 
0.712024 5.21358 0.0 
3.9756 4.08504 0.0 
4.037 4.008 0.0 
4.06005 3.96532 0.0 
4.27252 3.94427 0.0 
3.08171 2.09887 0.0 
4.04847 4.04817 0.0 
4.01118 3.98048 0.0 
4.68789 4.06704 0.0 
4.68197 3.93546 0.0 
4.25592 4.11374 0.0 
4.94951 3.99696 0.0 
3.9514 4.04615 0.0 
13.8023 4.77684 0.0 
4.03373 4.01881 0.0 
4.5758 3.9487 0.0 
4.13827 4.08787 0.0 
11.676 4.06587 0.0 
4.0241 4.0517 0.0 
4.03402 4.05512 0.0 
4.01068 3.99745 0.0 
4.02872 3.99494 0.0 
4.10704 4.04463 0.0 
4.40413 4.05425 0.0 
4.66798 4.07163 0.0 
4.39652 3.99081 0.0 
5.02756 3.99082 0.0 
4.49023 4.08399 0.0 
4.4662 4.06632 0.0 
4.35592 4.0377 0.0 
4.31822 3.96754 0.0 
3.98656 4.03721 0.0 
4.37555 4.04551 0.0 
4.07021 3.95517 0.0 
4.17783 3.97887 0.0 
4.0058 3.89174 0.0 
4.67771 4.06455 0.0 
3.99592 4.02432 0.0 
4.67865 4.05962 0.0 
4.68416 4.05975 0.0 
4.35621 4.08067 0.0 
8.03045 5.83915 0.0 
4.43104 3.97102 0.0 
4.31797 4.07549 0.0 
[...]
<PointData>
  <DataArray type = "Float64" Name="Vitesse" NumberOfComponents="3" format="ascii">
1 0 0.0 
0.999296 0 0.0 
1.00079 0 0.0 
1 0 0.0 
1.06425 -0.00974163 0.0 
0.0176737 -0.00267511 0.0 
0.178969 -0.0114536 0.0 
0.999189 -0.00789485 0.0 
0.951169 -0.313222 0.0 
1.07836 -0.0784967 0.0 
0.0192476 0.00124686 0.0 
0.232473 -0.0184844 0.0 
0.0134742 0.000533486 0.0 
0.166726 -0.00496581 0.0 
0.139564 -0.012231 0.0 
0.91846 0.113448 0.0 
0.301515 -0.00164422 0.0 
0.0103909 0.000361954 0.0 
0.323791 0.0149053 0.0 
0.0340784 -0.00505133 0.0 
1.01039 0 0.0 
0.111243 -0.011393 0.0 
0.205857 -0.00243161 0.0 
0.137536 0.0157073 0.0 
0 0 0.0 
1.00766 -0.00546946 0.0 
0.0605042 -0.00640161 0.0 
0.703095 0.00663339 0.0 
0.970821 0.10468 0.0 
0 0 0.0 
0.239656 0.00325755 0.0 
7.81107e-16 2.22082e-16 0.0 
0.00159932 0.000105599 0.0 
0.229316 -0.00622198 0.0 
0.0544989 -0.00725406 0.0 
0.51681 -0.0144359 0.0 
-1.53464e-225 3.52465e-227 0.0 
0 0 0.0 
0.0060639 -0.00097368 0.0 
0.821303 0.208532 0.0 
8.65908e-05 7.3317e-06 0.0 
0.174393 -0.00287149 0.0 
0.0220621 -0.00176844 0.0 
0.727834 -0.0433314 0.0 
0 0 0.0 
0.00798336 -0.000260345 0.0 
0.321438 0.0108878 0.0 
0.991626 -0.000808568 0.0 
0.0756784 0.00556118 0.0 
0.944719 0.306839 0.0 
0 0 0.0 
0.0127232 0.000845751 0.0 
0.960155 -0.012132 0.0 
0.207695 -0.0220063 0.0 
0.954796 0.0911409 0.0 
0.838239 0.20455 0.0 
0.00819093 0.000752199 0.0 
1.02242 -0.22191 0.0 
0.936033 0.241263 0.0 
0 0 0.0 
0.237131 0.0248012 0.0 
0.883991 -0.149332 0.0 
1.01504 -0.000281905 0.0 
0 0 0.0 
0.301326 0.0894221 0.0 
0.139183 0.0125055 0.0 
0.895248 -0.0223533 0.0 
0 0 0.0 
0.0621563 -0.00754334 0.0 
0.0155191 3.75082e-05 0.0 
0.998474 0.00138975 0.0 
0.389043 0.206958 0.0 
8.89716e-05 -9.87616e-06 0.0 
0 0 0.0 
-2.91793e-269 3.38351e-270 0.0 
0.0491227 -0.00675874 0.0 
0.149593 -0.0132077 0.0 
0 0 0.0 
0.0547345 -0.0090463 0.0 
0 0 0.0 
0.0287991 -0.00295081 0.0 
1.00217 0.0330861 0.0 
0.0783156 -0.0189388 0.0 
0.186793 0.0141113 0.0 
0 0 0.0 
0.563536 0.137069 0.0 
0.0467406 -0.00796501 0.0 
0.521868 -0.458137 0.0 
0 0 0.0 
1.04305 -0.0704404 0.0 
0.281959 -0.0113783 0.0 
0.0795374 0.00116214 0.0 
0.0134039 0.000856148 0.0 
0.0484821 -0.0034583 0.0 
0.974972 0.0191289 0.0 
0.995771 0.0137469 0.0 
0.222222 0.0244657 0.0 
0.0105043 -0.000871683 0.0 
0.447392 -0.0108943 0.0 
1 0 0.0 
0.0256696 -0.00395929 0.0 
0.0150702 0.0011188 0.0 
0.0064671 -0.000342855 0.0 
0 0 0.0 
0.730749 -0.00109483 0.0 
0.10313 0.0051196 0.0 
0.117297 0.00337939 0.0 
0.0880242 -0.00132983 0.0 
1.90578e-10 2.87239e-11 0.0 
0 0 0.0 
1.05741 -0.0887738 0.0 
0.0482122 -0.00116716 0.0 
0.650918 0.0943179 0.0 
0 0 0.0 
0.0968875 -0.0159431 0.0 
0.584349 -0.0384427 0.0 
0.162985 0.00683002 0.0 
0.144241 -0.0141062 0.0 
1e-307 0 0.0 
0.852808 0.227659 0.0 
0.635153 -0.0520791 0.0 
0.486087 -0.00217357 0.0 
0.833823 0.343627 0.0 
1.01136 0.0277292 0.0 
0.119337 -0.0100132 0.0 
1.01848 -0.195246 0.0 
0.947191 0.0461357 0.0 
0.309181 0.00266342 0.0 
2.75072e-287 -4.25897e-288 0.0 
0 0 0.0 
0.0333573 -0.0128328 0.0 
0.191381 0.112876 0.0 
0.145131 0.00623171 0.0 
0.527222 -0.0147863 0.0 
0.118187 -0.0120907 0.0 
0.0972368 -0.00218623 0.0 
6.53991e-59 -4.67666e-60 0.0 
0.703098 0.144813 0.0 
0.00627673 -0.000853822 0.0 
0.82258 0.157315 0.0 
0.108692 0.0189626 0.0 
1.07788 0.108942 0.0 
1.00657 -0.0889269 0.0 
0.349571 0.0287899 0.0 
0 0 0.0 
1 0 0.0 
0.0153785 -0.0039029 0.0 
0 0 0.0 
0.828821 -0.193331 0.0 
0.203494 0.0173173 0.0 
0.800647 0.277879 0.0 
0.214556 0.0071618 0.0 
-1.03796e-234 3.97028e-236 0.0 
-4.15385e-243 -3.22541e-243 0.0 
-2.11515e-148 -6.64899e-150 0.0 
1.02057 -0.117342 0.0 
0.126118 -0.0147441 0.0 
0.017393 0.000728931 0.0 
0.954066 -0.247074 0.0 
0.404528 -0.0195478 0.0 
0.0878721 -0.00940882 0.0 
0.115562 -0.00608723 0.0 
0.81054 0.195136 0.0 
0 0 0.0 
0.189915 -0.0180741 0.0 
0.368832 -0.00451541 0.0 
0.134 0.00597749 0.0 
0 0 0.0 
0.852012 0.111162 0.0 
0.0868 -0.0155017 0.0 
1.00585 -0.0145818 0.0 
1.01629 -0.00418825 0.0 
0.123707 0.0104799 0.0 
0.0570327 0.00348868 0.0 
0.00574337 0.000542027 0.0 
0.0669804 -0.0130074 0.0 
1.00818 -0.000759262 0.0 
0 0 0.0 
0.0727081 -0.0186879 0.0 
0.705206 0.0872121 0.0 
0.206797 -0.0267173 0.0 
0 0 0.0 
0.148385 0.00579297 0.0 
-2.7538e-95 -1.41418e-96 0.0 
0.185964 -0.0145579 0.0 
0.944692 0.139072 0.0 
0.0773964 -0.00927149 0.0 
0.16704 0.021653 0.0 
0.0764191 -0.0133054 0.0 
0.22594 -0.0189128 0.0 
0.686939 0.232094 0.0 
-1.63672e-93 1.20216e-94 0.0 
0 0 0.0 
0.735516 0.131479 0.0 
0.600186 0.279927 0.0 
0 0 0.0 
4.14786e-216 2.24543e-216 0.0 
0 0 0.0 
0.133889 -0.0199964 0.0 
0.000623395 -2.6683e-07 0.0 
0.0559768 0.00132901 0.0 
0 0 0.0 
0.386019 0.0070139 0.0 
0.0546876 -0.00712749 0.0 
0 0 0.0 
0 0 0.0 
0.100216 -0.00158141 0.0 
0.257938 -0.0182357 0.0 
0 0 0.0 
1.02048 0.00216235 0.0 
0.18523 0.0148396 0.0 
0.146945 0.0061835 0.0 
0.150231 0.0156614 0.0 
0 0 0.0 
3.34912e-58 1.15841e-58 0.0 
0.478045 -0.0159157 0.0 
0.729777 0.270175 0.0 
0.0654812 0.00927079 0.0 
0.172441 0.0108796 0.0 
0.292681 -0.0188022 0.0 
0.0595045 -0.00177616 0.0 
0.124722 -0.00646802 0.0 
0.00370768 -0.00075857 0.0 
0.0787883 -0.0123563 0.0 
0.00157027 -0.000191788 0.0 
0.682816 -0.00214212 0.0 
0.566073 0.0401753 0.0 
0.72104 -0.0457672 0.0 
0.0166674 -0.00108292 0.0 
-4.23267e-227 -6.25875e-228 0.0 
0.360735 0.0477328 0.0 
0.110735 0.0055429 0.0 
0.0136595 -0.00186207 0.0 
0.217417 0.013664 0.0 
1.11914 0.10659 0.0 
0.147184 -0.0142163 0.0 
0.966322 -0.00325411 0.0 
-1.81561e-147 -1.65605e-148 0.0 
0.0589206 -0.00702122 0.0 
0.728095 0.200908 0.0 
0.00665167 -0.00121698 0.0 
0 0 0.0 
0.000188583 1.59675e-05 0.0 
-5.04933e-116 6.49097e-117 0.0 
-3.11491e-114 3.75651e-115 0.0 
0.0535774 0.00258327 0.0 
0.0211046 0.000471251 0.0 
0.948446 -0.147782 0.0 
0.0290943 -0.0059068 0.0 
0.144288 -0.0153313 0.0 
0.000236659 1.53818e-05 0.0 
0.00728017 -0.00319565 0.0 
0.0273292 -0.00126166 0.0 
0.908116 0.0343476 0.0 
1.02095 0.000540531 0.0 
0.0140194 -6.98241e-05 0.0 
0.755238 -0.362105 0.0 
0.198052 0.0233791 0.0 
0 0 0.0 
0.10437 -0.007535 0.0 
0.103506 0.00306918 0.0 
0.00134746 7.58546e-05 0.0 
0.898839 0.333481 0.0 
0.110765 -0.0076184 0.0 
0.0450025 -0.00186466 0.0 
0.448217 -0.0103084 0.0 
0.0715849 -0.00865172 0.0 
0.911943 0.151082 0.0 
0.380244 0.0201144 0.0 
-1.31074e-95 -5.52179e-98 0.0 
1.05033 -0.0227869 0.0 
0 0 0.0 
0.233564 0.0480954 0.0 
0.222522 -0.00614628 0.0 
0.0873588 -0.00857829 0.0 
0.0465141 -0.00326609 0.0 
0.298793 0.0567466 0.0 
0.0223484 0.00103776 0.0 
0.996392 -0.0108427 0.0 
0.813177 0.36316 0.0 
0.415287 0.02512 0.0 
0.405403 0.031001 0.0 
0.839624 0.019081 0.0 
0.350757 -0.103419 0.0 
0.0577186 0.00292541 0.0 
0.136551 -0.0180094 0.0 
0 0 0.0 
0.0281419 -0.000644977 0.0 
0.324259 -0.00815569 0.0 
0.610089 -0.310734 0.0 
0.00997983 -0.00143844 0.0 
0.0233512 0.00179943 0.0 
0.953622 -0.0378752 0.0 
0.860378 0.00914194 0.0 
0.778428 0.336365 0.0 
1.06054 0.120589 0.0 
0.0239392 -0.00196137 0.0 
1.00273 0 0.0 
0.126519 -0.0181937 0.0 
0.0201332 -0.000161307 0.0 
0.0730865 0.00309119 0.0 
0.527965 0.0295987 0.0 
0.0862782 -0.00486323 0.0 
0.280964 0.00865499 0.0 
0.919139 0.321358 0.0 
0.284894 -0.0200127 0.0 
0.0238361 0.000627203 0.0 
1.01031 -0.00105368 0.0 
0.988925 -0.0350845 0.0 
0.932257 0.104222 0.0 
0.590188 0.0497617 0.0 
0.427625 0.0481397 0.0 
0.495922 0.00915057 0.0 
1.08303 0.164925 0.0 
0.015237 -0.00119163 0.0 
1e-307 1e-307 0.0 
0.711263 0.225303 0.0 
0.345759 0.000568777 0.0 
0 0 0.0 
0.405288 0.0286382 0.0 
0.57167 0.17173 0.0 
1.01001 0.00158457 0.0 
0 0 0.0 
0.189281 0.00808259 0.0 
0.755355 -0.0277979 0.0 
0.0150744 0.00107248 0.0 
0.0527563 -0.0126736 0.0 
0.516103 0.17005 0.0 
0.764587 -0.43547 0.0 
0.489678 0.0003701 0.0 
0 0 0.0 
0.472991 -0.443067 0.0 
0.163142 0.00727442 0.0 
0.135253 -0.00848984 0.0 
0.897899 -0.0621614 0.0 
0 0 0.0 
0.143922 -0.00162977 0.0 
0.0755597 -0.00819892 0.0 
1e-307 1e-307 0.0 
0.542074 0.0375667 0.0 
1.59156e-291 2.89035e-292 0.0 
0.0179349 0.000394409 0.0 
0.744725 0.351309 0.0 
0.984652 0.287675 0.0 
0 0 0.0 
0 0 0.0 
0.0752687 -0.0563486 0.0 
0 0 0.0 
0.181094 0.019271 0.0 
0.118041 -0.0109259 0.0 
0.0592963 0.023667 0.0 
0.0166866 -0.00171198 0.0 
0.142479 -0.0062446 0.0 
1.70075e-286 7.79162e-289 0.0 
0 0 0.0 
0.0662619 -0.0321788 0.0 
0.847577 -0.369442 0.0 
0.864173 0.135923 0.0 
0 0 0.0 
1.05459 -0.175995 0.0 
0.608085 -0.190241 0.0 
1.00863 0.000773037 0.0 
0 0 0.0 
0 0 0.0 
0.10683 0.00333465 0.0 
0.898574 0.00393985 0.0 
0.231028 0.0240303 0.0 
0.6095 0.318745 0.0 
1.00406 -0.000898362 0.0 
0.00830967 0.000496778 0.0 
0 0 0.0 
0.580636 -0.0110008 0.0 
0.375766 -0.0210413 0.0 
0.328093 0.0280626 0.0 
-4.91769e-145 -1.54565e-146 0.0 
1.0093 0.00818503 0.0 
0.672717 0.290138 0.0 
0 0 0.0 
0 0 0.0 
-2.67101e-230 -1.71323e-231 0.0 
0.87757 -0.228047 0.0 
0.966042 -0.00208001 0.0 
1.38293e-270 2.91833e-272 0.0 
0.670412 -0.0416676 0.0 
0.152032 -0.0124367 0.0 
0 0 0.0 
0 0 0.0 
0 0 0.0 
0.027576 -0.00260745 0.0 
0.190857 0.00850013 0.0 
0.186506 -0.138973 0.0 
1e-307 1e-307 0.0 
0.660646 0.369532 0.0 
0.244128 -0.00535019 0.0 
0.879338 0.014558 0.0 
0.0528939 -0.00668909 0.0 
0.0590926 -0.0100009 0.0 
0.739139 0.325451 0.0 
0.0463312 -0.00144947 0.0 
0 0 0.0 
0.854625 -0.0932444 0.0 
0.117406 0.0128619 0.0 
0.542504 -0.347599 0.0 
0.00177004 -0.000250178 0.0 
1.01262 -0.0202417 0.0 
0.359793 -0.0199171 0.0 
0 0 0.0 
0 0 0.0 
0.0134833 -0.00102726 0.0 
0.839241 -0.00132688 0.0 
0.0264422 -0.00115025 0.0 
0.186861 0.0140167 0.0 
1.02916 0.0447687 0.0 
-2.85437e-95 1.00014e-96 0.0 
0.0230916 0.0014175 0.0 
0.00738885 0.000659161 0.0 
0.444929 0.0255457 0.0 
0.838854 0.268764 0.0 
0.000764236 4.19392e-05 0.0 
0.423085 0.00657892 0.0 
0.577509 -0.0119823 0.0 
0 0 0.0 
0.491436 -0.0485145 0.0 
0 0 0.0 
0.033344 -0.00288057 0.0 
0 0 0.0 
0.906657 0.113873 0.0 
0.274793 0.00259188 0.0 
0.128024 0.0169916 0.0 
0.999905 0.000962016 0.0 
0.847317 0.173756 0.0 
0 0 0.0 
0.512351 -0.0966635 0.0 
0.487663 -0.00662367 0.0 
1.0029 -0.00645673 0.0 
0.721552 0.25977 0.0 
0.591602 -0.320262 0.0 
0.187103 -0.0155818 0.0 
0.547771 0.0143703 0.0 
1.03455 0.105658 0.0 
0.000327902 1.82043e-05 0.0 
0.770329 0.097637 0.0 
1.0006 -0.000974517 0.0 
0 0 0.0 
0.371987 0.0105418 0.0 
0.989905 0.197155 0.0 
1.00155 -0.00858968 0.0 
0.847965 0.352366 0.0 
0.88282 0.34415 0.0 
0 0 0.0 
0 0 0.0 
-1.64214e-241 -5.3677e-242 0.0 
0 0 0.0 
0.22597 -0.0168808 0.0 
0 0 0.0 
0.107998 0.0157576 0.0 
0.312679 -0.00984479 0.0 
0.0175888 -0.000294588 0.0 
0 0 0.0 
0.0333652 0.00107186 0.0 
0.67603 0.219708 0.0 
0 0 0.0 
0.812953 -0.151116 0.0 
0 0 0.0 
0.973601 -0.180374 0.0 
0.153391 -0.0128707 0.0 
0.547302 0.293862 0.0 
0.103927 -0.00928135 0.0 
0.109301 -0.0100825 0.0 
0.264001 0.00206043 0.0 
1.00988 -0.00130511 0.0 
0.0270855 0.00017868 0.0 
0.169573 0.00431457 0.0 
1.04101 0.0734063 0.0 
0.0137075 0.00102505 0.0 
0.229493 0.00986894 0.0 
0.818948 -0.437862 0.0 
0.116828 -0.0227249 0.0 
2.43937e-185 -3.44299e-186 0.0 
0.0402842 0.00133926 0.0 
0.421389 -0.0135248 0.0 
0.188053 0.0138157 0.0 
0.266907 -0.00854311 0.0 
0.0513149 -0.00542058 0.0 
0.375758 0.00627075 0.0 
0.986874 -0.0617651 0.0 
0 0 0.0 
0.971843 -0.0470688 0.0 
0.99584 0.277542 0.0 
0.744506 0.147856 0.0 
0.480934 -0.0421701 0.0 
0 0 0.0 
1.01351 -0.00431937 0.0 
0.338364 0.0666603 0.0 
0.989687 0.283737 0.0 
0.772919 0.0313952 0.0 
0.492502 -0.0804417 0.0 
0.764222 0.277509 0.0 
0.934204 0.178015 0.0 
0.708926 0.25096 0.0 
0.00596881 -0.000958193 0.0 
0 0 0.0 
0.0062776 -0.000957857 0.0 
0 0 0.0 
0.599997 0.00533666 0.0 
0.00117247 8.20101e-05 0.0 
0 0 0.0 
0 0 0.0 
0.747189 0.22243 0.0 
1.04066 -0.0256624 0.0 
0.812187 0.323359 0.0 
0 0 0.0 
0.679164 0.145507 0.0 
1.01654 0.0141187 0.0 
1.04745 0.22957 0.0 
0.340313 0.0161334 0.0 
0.0715445 0.00364124 0.0 
0.112162 9.82321e-05 0.0 
0.707668 0.17412 0.0 
0.961652 -0.0333645 0.0 
0.202365 -0.0194547 0.0 
0.463785 -0.440729 0.0 
0 0 0.0 
1.04544 0.00496933 0.0 
0 0 0.0 
1.09858 0.015339 0.0 
1 0 0.0 
0.100256 0.00397551 0.0 
0.973447 -0.177399 0.0 
0.00352938 5.73099e-05 0.0 
1.00863 -0.0130034 0.0 
0.571825 0.0493338 0.0 
0.847568 0.314413 0.0 
1.11895 0.122648 0.0 
0.998634 -0.000758056 0.0 
0.765329 -0.3319 0.0 
0.924191 -0.200069 0.0 
0.810445 -0.324239 0.0 
0.900364 -0.0497595 0.0 
0.835879 -0.367543 0.0 
1.07094 -0.226377 0.0 
0.647803 0.0725295 0.0 
0.105266 0.00428495 0.0 
0.0124819 -0.00155768 0.0 
0.841831 -0.0294378 0.0 
0.884323 -0.391574 0.0 
0.536991 -0.00942296 0.0 
0 0 0.0 
0.00404925 -0.000707691 0.0 
0.188694 0.00771776 0.0 
0.67373 0.0684355 0.0 
0 0 0.0 
0.0154726 0.00142969 0.0 
0 0 0.0 
0.875071 -0.402437 0.0 
0.304272 0.0037385 0.0 
0.660306 -0.00656412 0.0 
0.634141 -0.101999 0.0 
0.600956 -0.166406 0.0 
0.586873 0.0132357 0.0 
0.904861 0.0951442 0.0 
0 0 0.0 
0.0697313 0.0428201 0.0 
0.079678 -0.00262117 0.0 
0.121717 -0.0103636 0.0 
0.31546 0.0112996 0.0 
0.000589384 8.06804e-06 0.0 
0.905775 0.210524 0.0 
0 0 0.0 
1.0013 0 0.0 
0 0 0.0 
0.020142 -0.0440872 0.0 
0 0 0.0 
0.404955 0.207015 0.0 
0.982976 0.0950039 0.0 
2.94914e-05 -3.71611e-06 0.0 
0.474985 -0.0788687 0.0 
0.74079 0.0583325 0.0 
0 0 0.0 
0.992296 -0.312929 0.0 
0.0515846 0.00249443 0.0 
0 0 0.0 
0 0 0.0 
0 0 0.0 
0.764031 0.0798218 0.0 
0.912095 -0.00587811 0.0 
0.194214 -0.00121011 0.0 
0.679008 -0.0774203 0.0 
0.797264 0.109926 0.0 
0.052444 0.00283765 0.0 
1.00393 -0.0482212 0.0 
0.00544382 0.00105162 0.0 
0 0 0.0 
0 0 0.0 
0.722786 -0.0554399 0.0 
0.0014963 6.8834e-05 0.0 
0.718526 0.124576 0.0 
0.00476588 -0.000907998 0.0 
0.871912 0.335188 0.0 
0 0 0.0 
0.773013 0.120854 0.0 
0 0 0.0 
-1.75483e-230 1.54467e-231 0.0 
1.01582 0.191786 0.0 
1.78881e-291 3.12257e-292 0.0 
0.936504 0.290204 0.0 
1.00828 -0.000431582 0.0 
0.933021 0.0024279 0.0 
0.742348 0.107567 0.0 
0.911453 0.32892 0.0 
0.959678 0.0438455 0.0 
0.883694 0.321014 0.0 
3.49872e-63 1.92191e-63 0.0 
0.239542 0.00678884 0.0 
0.885273 -0.00862512 0.0 
1.01824 0.000159664 0.0 
0.874207 0.345423 0.0 
0.109549 -0.0113573 0.0 
0.934421 0.128383 0.0 
0.086221 0.00415866 0.0 
0 0 0.0 
0.129673 0.002258 0.0 
0.0505676 0.0020377 0.0 
2.65076e-05 -2.20343e-06 0.0 
-6.19006e-169 -2.82684e-169 0.0 
0.780081 0.00185776 0.0 
0.457135 -0.294882 0.0 
1e-307 1e-307 0.0 
1.00154 0 0.0 
0.639952 0.0531825 0.0 
0.679733 0.061274 0.0 
0.661168 -0.0552321 0.0 
0.138489 -0.0137714 0.0 
0 0 0.0 
0.122761 0.00325503 0.0 
0.52212 0.00486279 0.0 
0.993617 -0.32392 0.0 
0 0 0.0 
1.00137 0.00297289 0.0 
0.996224 0.00325765 0.0 
0.496686 0.136298 0.0 
0.999719 -0.00244499 0.0 
-4.47293e-105 -1.01118e-105 0.0 
0.885274 -0.224245 0.0 
0.441755 -0.0359652 0.0 
0.0105758 0.000183505 0.0 
0.106597 0.00457718 0.0 
1.05767 0.15124 0.0 
0.0443458 -0.0047816 0.0 
0.0202013 0.00140583 0.0 
0.813439 -0.0934648 0.0 
0.0717021 0.00310367 0.0 
1.00102 0 0.0 
0.816435 0.0256344 0.0 
0.352469 -0.00932421 0.0 
0.105169 -0.00382435 0.0 
0.000204247 -5.69326e-06 0.0 
0.841884 0.0780729 0.0 
1.01215 0.0138674 0.0 
0.0159922 -0.00227476 0.0 
0.27333 0.00896102 0.0 
0.817901 -0.0196771 0.0 
0 0 0.0 
0.0255476 0.00104942 0.0 
-1.62649e-230 -2.18123e-231 0.0 
0.984141 -0.0472541 0.0 
0.622205 0.195339 0.0 
0.0373972 0.00601761 0.0 
0.344147 0.0613957 0.0 
1.001 0.00317936 0.0 
1.01973 -0.0751608 0.0 
0 0 0.0 
0.110832 0.00282693 0.0 
0.583399 0.298797 0.0 
0 0 0.0 
0.141559 0.00261646 0.0 
0.668247 -0.127126 0.0 
0.950927 -0.225684 0.0 
0.2535 0.122708 0.0 
0.2625 0.0147518 0.0 
0.845146 0.337689 0.0 
0.231446 0.00663367 0.0 
0.180599 -0.00579177 0.0 
0.594837 0.338812 0.0 
0.505205 0.0716701 0.0 
0.140156 0.00461615 0.0 
0.387485 0.0347087 0.0 
1.03322 0.136593 0.0 
0.0219314 -0.00143118 0.0 
0 0 0.0 
0.976022 -0.12942 0.0 
0 0 0.0 
1.31239e-212 7.10456e-213 0.0 
1.00239 -0.000866432 0.0 
0.89987 0.33611 0.0 
1.01573 0.273331 0.0 
0 0 0.0 
0.245649 0.00631656 0.0 
0.817794 -0.146221 0.0 
0.00262588 -0.000420161 0.0 
0.655016 0.0236429 0.0 
0.0842932 0.0312752 0.0 
0.0712884 0.0113683 0.0 
0 0 0.0 
0 0 0.0 
0.324169 0.0895695 0.0 
0.818509 0.300207 0.0 
0.0961196 -0.00845408 0.0 
0.612731 0.0160071 0.0 
0.628668 0.115477 0.0 
0.524133 -0.00271896 0.0 
0 0 0.0 
0.348073 0.0111789 0.0 
0.807597 -0.0737106 0.0 
0.15858 0.00520956 0.0 
1.04293 -0.238892 0.0 
0 0 0.0 
1.00273 -0.000375912 0.0 
0.266616 0.00292199 0.0 
1.01477 0.00418595 0.0 
0 0 0.0 
0.529499 0.0184303 0.0 
0 0 0.0 
0.885605 -0.0505542 0.0 
0.031259 1.8666e-05 0.0 
1.00538 0 0.0 
0.274537 0.0214109 0.0 
0.0207975 0.000861435 0.0 
0 0 0.0 
0.757502 -0.100921 0.0 
-7.31484e-141 1.23253e-142 0.0 
0.992959 0.0589092 0.0 
1.06296 -0.0519698 0.0 
0.668976 0.0194242 0.0 
0.634266 0.0763989 0.0 
0.261135 0.0227988 0.0 
0.47039 -0.00135767 0.0 
1.05866 0.000257043 0.0 
0 0 0.0 
0.216117 -0.00539503 0.0 
0.302531 0.0123691 0.0 
1.00406 0.266588 0.0 
1.07379 0.143745 0.0 
0.958896 0.286878 0.0 
0.587299 -0.123821 0.0 
0.834654 0.258282 0.0 
0 0 0.0 
0.566918 -0.000557878 0.0 
1.02145 -0.1476 0.0 
0.663454 -0.0653578 0.0 
0.868762 -0.189543 0.0 
1.01276 0.254785 0.0 
1.08247 0.204177 0.0 
1.01402 0.00710395 0.0 
0.0100522 -0.00173042 0.0 
0.250888 0.0294295 0.0 
0.863735 -0.0358828 0.0 
0.555262 -0.0986495 0.0 
0.000379603 5.30942e-05 0.0 
0.0134667 0.00171904 0.0 
0.827805 -0.0474524 0.0 
0.704213 -0.0592717 0.0 
0.000227477 -3.39095e-05 0.0 
0.241454 -0.00167764 0.0 
0.536831 -0.0504237 0.0 
1 0 0.0 
0.0805972 0.00834444 0.0 
0.78644 0.261211 0.0 
0.231511 0.00577442 0.0 
1.0355 0.0507792 0.0 
0.445252 -0.00726396 0.0 
0.300225 0.0116442 0.0 
1.02481 -0.220255 0.0 
0.460746 -0.0329194 0.0 
0.9218 0.25574 0.0 
0.571679 0.0110954 0.0 
0.0205098 0.000322148 0.0 
0.174081 0.00564286 0.0 
1.01451 -0.00174514 0.0 
1.00654 0 0.0 
0 0 0.0 
0.302885 -0.0087975 0.0 
0 0 0.0 
0 0 0.0 
0.792315 0.210991 0.0 
1.00969 0 0.0 
0 0 0.0 
0 0 0.0 
0 0 0.0 
1.07815 -0.00170413 0.0 
0.0400226 0.000664518 0.0 
0.959241 0.0803954 0.0 
0.272163 -0.0042229 0.0 
0.00823972 -0.00141183 0.0 
1.05497 -0.018882 0.0 
0.000731837 7.2178e-05 0.0 
0 0 0.0 
0.653215 -0.0182087 0.0 
0.383758 0.0447896 0.0 
0 0 0.0 
0.000262988 2.07705e-05 0.0 
0.0272495 0.00129248 0.0 
0.332904 0.0105019 0.0 
0.0709085 0.00791594 0.0 
1.01367 -0.00303958 0.0 
0.0966021 0.00515088 0.0 
0.18029 0.00297073 0.0 
0.17811 0.0100301 0.0 
0.969806 0.163506 0.0 
0.262936 0.0239763 0.0 
0.103713 0.00530629 0.0 
0 0 0.0 
0.330073 0.00631188 0.0 
0.61992 0.040627 0.0 
0.831343 -0.0406373 0.0 
0 0 0.0 
0.0227414 -0.000243891 0.0 
0.897501 0.186995 0.0 
0.000711351 -4.7556e-06 0.0 
1.10574 0.141796 0.0 
1.37405e-05 -1.16519e-06 0.0 
0.290656 0.0925013 0.0 
0.79114 0.167584 0.0 
0.017526 0.000129967 0.0 
0.069159 -0.0083087 0.0 
0.399599 0.176878 0.0 
0.376761 -0.030456 0.0 
0.53973 -0.0110641 0.0 
0.364082 0.00318656 0.0 
0 0 0.0 
0.0273808 -0.000909975 0.0 
0 0 0.0 
0.930413 0.0953726 0.0 
0.0382792 0.00154795 0.0 
0.496461 -0.0398716 0.0 
0.258339 0.00522243 0.0 
0.0302974 -0.00249448 0.0 
0 0 0.0 
0.25898 0.0216514 0.0 
0.890819 -0.208075 0.0 
0.44135 0.00232531 0.0 
0.0257201 0.00272605 0.0 
0.955301 -0.204949 0.0 
0.00145896 -0.000119782 0.0 
0.968772 -0.048351 0.0 
1.06848 -0.147014 0.0 
0.871478 0.0117683 0.0 
0.948805 -0.0148108 0.0 
0.813255 -0.0273256 0.0 
0 0 0.0 
0 0 0.0 
1.07537 0.0501799 0.0 
0.00248772 0.000219862 0.0 
0.300073 0.0167912 0.0 
0.0358131 -0.00271691 0.0 
-5.07941e-101 -1.92548e-102 0.0 
0.999171 -0.00026138 0.0 
1.00062 -0.240157 0.0 
0.901642 0.106055 0.0 
0.246167 0.0688242 0.0 
1.06478 -0.0351809 0.0 
0.423998 -0.0150721 0.0 
0 0 0.0 
0.000608106 6.54269e-05 0.0 
0.863464 -0.137236 0.0 
1 0 0.0 
0.358438 0.0121993 0.0 
0 0 0.0 
0.00486405 -0.000405639 0.0 
0.999629 -0.000282044 0.0 
0.00468043 -0.00131559 0.0 
0.347527 -0.0112459 0.0 
0 0 0.0 
0 0 0.0 
0 0 0.0 
0 0 0.0 
0.815664 -0.0944044 0.0 
0 0 0.0 
0 0 0.0 
0 0 0.0 
0 0 0.0 
0.167079 0.00457832 0.0 
2.2354e-05 2.05882e-06 0.0 
0.625895 0.357414 0.0 
0.0368847 -0.00091607 0.0 
0.630003 0.214508 0.0 
1.08781 -0.0609596 0.0 
0 0 0.0 