<VTKFile type="UnstructuredGrid" version="0.1" byte_order="LittleEndian">
  <UnstructuredGrid>
    <Piece NumberOfPoints="14155" NumberOfCells="28158">
      <Points>
        <DataArray type = "Float64" NumberOfComponents="3" format="ascii">
0 0 0.0 
14 0 0.0 
14 8 0.0 
0 8 0.0 
4.16004 3.91388 0.0 
4.7112 4.00424 0.0 
5.15553 4.02606 0.0 
4.05414 4.06937 0.0 
4.84592 3.98275 0.0 
4.47426 3.96159 0.0 
5.02894 3.97641 0.0 
4.7714 3.99257 0.0 
5.03468 4.02948 0.0 
4.69318 4.07079 0.0 
4.57275 4.06362 0.0 
4.70983 3.95717 0.0 
4.13057 3.96685 0.0 
4.10592 3.94246 0.0 
5.30984 4.02831 0.0 
4.65295 4.06077 0.0 
4.09037 4.02484 0.0 
4.49923 3.98957 0.0 
4.4646 4.09011 0.0 
8.40909 0 0.0 
4.15731 3.95386 0.0 
4.18732 4.08314 0.0 
5.89958 3.94354 0.0 
4.69289 4.05287 0.0 
4.59037 4.04308 0.0 
4.53202 4.08519 0.0 
4.89981 4.00371 0.0 
4.68074 4.03738 0.0 
4.49719 3.96841 0.0 
4.48512 4.07584 0.0 
4.72255 4.00282 0.0 
4.69551 3.99783 0.0 
4.06288 4.03688 0.0 
4.97506 4.0101 0.0 
4.01348 3.9482 0.0 
4.69997 4.06131 0.0 
4.2662 4.07183 0.0 
4.52888 4.04481 0.0 
4.6017 3.97452 0.0 
5.00775 3.98134 0.0 
4.00249 4.02948 0.0 
4.63206 4.06671 0.0 
4.53882 4.04728 0.0 
4.44269 4.04883 0.0 
3.9616 3.95728 0.0 
4.09436 4.06637 0.0 
4.4053 3.95331 0.0 
4.4771 4.14539 0.0 
4.16608 4.06129 0.0 
4.52574 3.86196 0.0 
4.51194 4.04817 0.0 
5.08605 3.99131 0.0 
4.42265 3.98976 0.0 
4.18857 3.93896 0.0 
4.64256 4.05213 0.0 
4.9762 3.97993 0.0 
3.71647 4.02981 0.0 
4.05789 4.06544 0.0 
4.10075 4.03591 0.0 
4.52044 3.993 0.0 
3.23708 0 0.0 
4.80357 4.01981 0.0 
4.48143 3.94453 0.0 
4.61955 4.05723 0.0 
4.09973 4.06883 0.0 
4.64195 4.07462 0.0 
4.33113 3.95575 0.0 
4.92661 4.017 0.0 
4.09324 4.07263 0.0 
4.48463 4.0392 0.0 
4.347 3.96293 0.0 
4.51059 3.96639 0.0 
4.31534 4.06962 0.0 
4.50667 3.96198 0.0 
4.99514 4.03044 0.0 
4.49858 3.99538 0.0 
4.49677 3.98542 0.0 
4.06915 4.04534 0.0 
5.01575 3.97372 0.0 
4.64602 3.95406 0.0 
4.08526 3.93897 0.0 
4.08538 4.02507 0.0 
4.12721 3.98293 0.0 
4.76861 4.015 0.0 
4.13005 4.05697 0.0 
3.99368 4.01426 0.0 
4.54526 4.08248 0.0 
4.0631 3.94627 0.0 
4.14408 3.98765 0.0 
4.07875 3.96896 0.0 
4.5026 3.96124 0.0 
4.54352 3.95402 0.0 
4.28722 4.07407 0.0 
4.68631 3.99641 0.0 
4.98132 4.01715 0.0 
4.12392 3.96672 0.0 
5.00489 4.02516 0.0 
4.92033 4.02503 0.0 
4.48341 4.0268 0.0 
4.55961 3.96912 0.0 
4.09424 4.05815 0.0 
4.69984 4.00331 0.0 
3.99988 3.98708 0.0 
4.09868 4.04865 0.0 
4.21788 3.91237 0.0 
4.06866 4.04072 0.0 
4.46319 3.96947 0.0 
4.31647 3.96483 0.0 
4.32995 4.06641 0.0 
4.90309 3.97642 0.0 
4.47639 4.0639 0.0 
4.64644 4.05988 0.0 
4.54908 4.07056 0.0 
4.79332 3.85675 0.0 
4.87159 4.0416 0.0 
5.69382 4.21541 0.0 
5.04588 4.00736 0.0 
4.95018 4.02254 0.0 
4.94043 4.00416 0.0 
4.87679 3.98103 0.0 
4.72302 4.04655 0.0 
4.32318 4.06933 0.0 
5.14186 4.01465 0.0 
4.42529 4.05205 0.0 
4.40734 4.0669 0.0 
4.03237 3.98544 0.0 
4.84332 4.00872 0.0 
3.99135 4.001 0.0 
4.432 4.04803 0.0 
4.42299 4.04689 0.0 
5.05601 4.02191 0.0 
3.96521 4.23542 0.0 
4.17786 4.07881 0.0 
4.85295 4.03748 0.0 
4.85524 4.04334 0.0 
5.05166 3.98934 0.0 
4.1628 3.94775 0.0 
4.84689 4.00826 0.0 
5.09798 4.0273 0.0 
5.36909 4.15569 0.0 
4.08831 4.06631 0.0 
5.01674 4.00301 0.0 
4.63894 3.96651 0.0 
5.07335 3.98494 0.0 
4.66392 3.97714 0.0 
4.41792 4.13014 0.0 
4.96925 4.01607 0.0 
4.76076 3.86973 0.0 
4.89307 3.99416 0.0 
4.31978 3.95169 0.0 
4.43557 4.00435 0.0 
4.06619 4.0211 0.0 
6.0822 4.00264 0.0 
4.83069 3.98986 0.0 
4.40235 4.12784 0.0 
4.52576 4.0968 0.0 
4.92912 4.02955 0.0 
4.4792 3.98501 0.0 
4.51039 4.08178 0.0 
3.97234 4.03785 0.0 
4.98028 4.02023 0.0 
4.12766 3.96909 0.0 
4.69908 4.04855 0.0 
4.18416 3.91428 0.0 
5.00576 3.98835 0.0 
4.98226 4.00164 0.0 
4.39439 4.06912 0.0 
4.17071 3.92446 0.0 
5.02701 4.0199 0.0 
4.49075 4.05165 0.0 
4.98971 4.00888 0.0 
4.40737 4.07688 0.0 
4.82951 4.01109 0.0 
4.99603 3.97729 0.0 
4.30136 4.08065 0.0 
4.87337 4.0477 0.0 
4.4418 4.07991 0.0 
4.71049 4.0451 0.0 
4.19682 3.96681 0.0 
4.85012 4.04588 0.0 
4.05664 3.81012 0.0 
4.39865 4.07858 0.0 
4.54812 4.06066 0.0 
4.0089 3.92893 0.0 
4.95344 4.03902 0.0 
4.76973 4.04849 0.0 
4.3622 3.96615 0.0 
4.93427 4.02782 0.0 
4.24915 4.05618 0.0 
4.96401 4.0142 0.0 
4.0176 3.98556 0.0 
4.86277 4.01565 0.0 
4.04328 4.03224 0.0 
4.3802 3.97013 0.0 
5.65066 4.04919 0.0 
5.11516 3.98678 0.0 
4.26735 4.03929 0.0 
4.96708 3.99861 0.0 
4.14376 3.94805 0.0 
4.63931 3.95719 0.0 
9.0481 3.593 0.0 
4.94577 4.02538 0.0 
5.04611 4.02286 0.0 
5.77969 3.79826 0.0 
5.07835 4.0104 0.0 
4.98997 4.02393 0.0 
0 2.35313 0.0 
6.12629 3.83849 0.0 
5.01943 4.02273 0.0 
3.96199 4.03038 0.0 
5.04864 4.04382 0.0 
5.07252 3.99563 0.0 
4.69402 3.97442 0.0 
4.84404 4.01787 0.0 
6.2032 4.02114 0.0 
5.10136 4.03967 0.0 
4.9912 4.02807 0.0 
5.05772 4.01296 0.0 
4.06005 4.0358 0.0 
5.1634 4.01207 0.0 
4.88438 4.03747 0.0 
4.71894 3.97882 0.0 
4.43395 3.97472 0.0 
4.43167 4.08718 0.0 
4.81202 3.97577 0.0 
4.04023 3.98111 0.0 
4.4964 3.95722 0.0 
4.90736 3.98625 0.0 
4.17497 4.0613 0.0 
4.18816 4.09458 0.0 
4.89554 4.02846 0.0 
4.58392 3.97818 0.0 
3.99828 4.06973 0.0 
5.05402 4.03163 0.0 
4.07678 3.98202 0.0 
5.03851 4.01862 0.0 
4.46917 4.09884 0.0 
5.09724 4.01669 0.0 
4.89066 3.98714 0.0 
5.81864 3.96475 0.0 
4.11728 4.04788 0.0 
4.6339 3.96597 0.0 
4.01131 4.00199 0.0 
4.72242 3.97961 0.0 
4.83376 4.04998 0.0 
5.03249 3.98294 0.0 
4.90226 4.03143 0.0 
3.96103 3.91094 0.0 
5.0636 3.98872 0.0 
4.21599 3.90426 0.0 
5.40137 3.8426 0.0 
3.98273 4.00621 0.0 
4.2131 4.06904 0.0 
4.77385 4.00734 0.0 
4.25549 3.96681 0.0 
4.30899 4.07218 0.0 
4.98107 3.97981 0.0 
4.84155 4.03199 0.0 
4.19451 3.96372 0.0 
4.11892 4.05003 0.0 
5.10865 4.0171 0.0 
5.03617 4.00712 0.0 
4.01778 3.97712 0.0 
4.98218 4.02738 0.0 
4.82268 4.00593 0.0 
10.4953 7.64379 0.0 
4.03056 4.00348 0.0 
3.95046 4.00001 0.0 
4.27399 4.08827 0.0 
4.50108 4.04803 0.0 
4.48339 4.06288 0.0 
4.4061 4.0723 0.0 
4.07917 3.97615 0.0 
6.18811 3.13177 0.0 
4.87048 4.00054 0.0 
5.06365 4.004 0.0 
5.15402 3.98655 0.0 
4.61611 4.06119 0.0 
4.01959 3.92741 0.0 
4.95955 3.98972 0.0 
4.29233 4.0482 0.0 
13.7319 3.39863 0.0 
4.66183 3.95883 0.0 
4.63894 4.07868 0.0 
4.59375 4.05597 0.0 
4.62101 3.98256 0.0 
4.70738 4.03428 0.0 
3.99448 4.02842 0.0 
4.07029 3.97516 0.0 
6.35812 4.24988 0.0 
4.24818 3.98512 0.0 
4.52963 3.97239 0.0 
4.71413 4.03186 0.0 
4.89678 4.00895 0.0 
3.95004 3.97529 0.0 
4.79207 4.01477 0.0 
4.98463 4.01475 0.0 
4.88474 4.04745 0.0 
5.03662 3.96223 0.0 
5.00134 4.00081 0.0 
4.10323 3.94929 0.0 
4.83397 3.98119 0.0 
4.08218 3.92876 0.0 
5.00388 4.02124 0.0 
4.86175 4.00124 0.0 
5.03778 3.97692 0.0 
4.37772 4.04805 0.0 
5.01224 3.97834 0.0 
4.31195 4.06904 0.0 
4.06403 3.99467 0.0 
4.89847 4.02091 0.0 
4.11761 3.96632 0.0 
4.01925 4.05221 0.0 
4.08042 3.99528 0.0 
4.07356 3.93333 0.0 
6.05525 4.70476 0.0 
4.55972 4.05072 0.0 
4.71413 3.97529 0.0 
14 0.963503 0.0 
4.84539 4.04074 0.0 
4.81038 4.00082 0.0 
4.26043 3.96691 0.0 
4.59526 3.96295 0.0 
4.78205 3.99677 0.0 
4.89977 4.00993 0.0 
4.56611 4.00029 0.0 
4.75712 4.05214 0.0 
4.40278 3.88354 0.0 
4.5142 3.98562 0.0 
4.02873 4.02057 0.0 
5.47491 4.13032 0.0 
4.76183 4.05779 0.0 
4.36292 3.97076 0.0 
4.20293 4.06537 0.0 
4.72425 4.05263 0.0 
4.28115 4.08293 0.0 
4.25325 4.08014 0.0 
4.89207 4.01739 0.0 
4.98317 3.98354 0.0 
3.9731 4.09746 0.0 
4.70382 3.99891 0.0 
4.98174 4.03773 0.0 
4.50661 4.06104 0.0 
4.18941 3.96783 0.0 
4.12351 3.96466 0.0 
4.78582 3.99909 0.0 
3.89112 4.04876 0.0 
4.18162 4.06281 0.0 
4.05848 3.97477 0.0 
4.7832 4.00815 0.0 
4.03196 4.02921 0.0 
4.00975 4.04675 0.0 
11.5596 3.82428 0.0 
5.11748 4.03535 0.0 
2.67239 0 0.0 
4.94421 4.00316 0.0 
5.6049 4.1805 0.0 
4.13786 3.96819 0.0 
4.43463 4.07635 0.0 
4.4763 4.0574 0.0 
4.74057 3.98443 0.0 
4.09176 4.05181 0.0 
4.03695 4.06573 0.0 
4.6791 4.05209 0.0 
4.00273 4.05728 0.0 
4.86361 4.02541 0.0 
4.15836 3.97199 0.0 
4.5274 3.96538 0.0 
4.62561 4.0584 0.0 
4.51738 3.95904 0.0 
6.14678 3.93564 0.0 
4.23125 4.10173 0.0 
5.71039 3.82128 0.0 
5.99667 4.36233 0.0 
4.23412 4.06925 0.0 
4.83838 4.01704 0.0 
4.0437 4.02249 0.0 
4.41215 4.04996 0.0 
4.76686 4.05411 0.0 
4.38998 3.96939 0.0 
4.68631 4.05504 0.0 
3.99002 4.07043 0.0 
4.39329 4.07016 0.0 
4.44854 4.06796 0.0 
4.76173 3.99543 0.0 
4.83316 4.14695 0.0 
4.37269 4.06593 0.0 
8.75684 0.585272 0.0 
4.43748 4.07429 0.0 
4.71756 4.02623 0.0 
4.29615 3.9505 0.0 
4.28684 3.96502 0.0 
4.99347 4.02007 0.0 
4.7862 4.0021 0.0 
4.00749 3.97714 0.0 
4.77964 4.04339 0.0 
4.02105 4.04639 0.0 
4.3876 4.0699 0.0 
4.26317 4.06958 0.0 
4.90159 4.01523 0.0 
4.75018 4.04891 0.0 
4.18701 4.11078 0.0 
4.58599 3.96728 0.0 
4.18398 4.06252 0.0 
4.26136 4.08045 0.0 
4.0277 4.00858 0.0 
5.02996 4.013 0.0 
4.04219 4.00834 0.0 
4.04073 4.00277 0.0 
4.17646 4.0697 0.0 
4.65841 4.06361 0.0 
4.43801 3.97195 0.0 
4.32001 4.09024 0.0 
3.92084 4.22067 0.0 
4.00854 4.04134 0.0 
4.79034 4.04839 0.0 
4.45375 4.06645 0.0 
4.12847 3.96595 0.0 
5.02574 4.00671 0.0 
4.8569 3.98736 0.0 
5.00162 3.97999 0.0 
4.39934 4.08404 0.0 
4.00747 4.00932 0.0 
4.52611 3.95368 0.0 
4.68733 4.05112 0.0 
4.62756 4.06242 0.0 
4.73289 4.06629 0.0 
4.46142 4.06058 0.0 
4.01731 3.97083 0.0 
3.99746 3.98902 0.0 
4.7453 4.0445 0.0 
4.09154 3.93527 0.0 
4.24662 4.05047 0.0 
4.6559 7.60199 0.0 
4.25001 4.04496 0.0 
6.50559 4.81522 0.0 
4.34703 4.06568 0.0 
4.34187 4.06608 0.0 
4.44247 4.03874 0.0 
4.09549 3.97034 0.0 
3.99835 4.02918 0.0 
4.6898 4.06348 0.0 
12.2764 4.67793 0.0 
4.53433 3.96353 0.0 
4.47465 4.07409 0.0 
4.65861 4.06584 0.0 
4.74313 4.05361 0.0 
4.6626 4.06446 0.0 
4.67488 3.97264 0.0 
8.95271 7.51699 0.0 
4.74143 4.04868 0.0 
3.99623 4.03627 0.0 
4.03277 4.00935 0.0 
5.32579 4.0468 0.0 
4.05133 4.02283 0.0 
5.85834 4.33253 0.0 
4.35132 4.07666 0.0 
4.68898 4.06028 0.0 
4.33837 3.96836 0.0 
4.1755 3.94311 0.0 
4.03283 4.06047 0.0 
4.67571 4.0775 0.0 
4.0781 3.98964 0.0 
4.66226 4.06166 0.0 
3.98742 4.01904 0.0 
4.07806 4.04909 0.0 
6.27843 3.70862 0.0 
4.85938 3.97872 0.0 
[...]
<PointData>
  <DataArray type = "Float64" Name="Vitesse" NumberOfComponents="3" format="ascii">
1 0 0.0 
0.999716 0 0.0 
1.00034 0 0.0 
1 0 0.0 
1.08859 -0.114601 0.0 
2.67541e-281 2.25543e-282 0.0 
0.169529 -0.0109767 0.0 
0.942365 0.301167 0.0 
0.0743163 0.00342039 0.0 
0.161551 0.00503019 0.0 
0.18298 0.0205801 0.0 
2.16653e-144 1.47553e-145 0.0 
0.109227 -0.0192133 0.0 
0.228747 -0.0174031 0.0 
0.0663205 -0.00574133 0.0 
0.272668 0.00967701 0.0 
0.0651216 -0.00230321 0.0 
0.921425 -0.129206 0.0 
0.267705 -0.0102834 0.0 
0.0960266 -0.00907593 0.0 
0 0 0.0 
0 0 0.0 
0.416918 -0.00728822 0.0 
1.00209 0 0.0 
0.411668 -0.0227524 0.0 
0.720172 0.0992915 0.0 
0.558384 -0.0481066 0.0 
0.0543585 -0.00420596 0.0 
0 0 0.0 
0.341532 -0.0133266 0.0 
0 0 0.0 
0 0 0.0 
0.0839838 0.00356624 0.0 
0.17937 -0.00788671 0.0 
5.30568e-280 4.4728e-281 0.0 
1e-307 0 0.0 
1e-307 1e-307 0.0 
0.0116491 -0.00196021 0.0 
0.961755 -0.327041 0.0 
0.135292 -0.0114608 0.0 
0.143877 0.011328 0.0 
0 0 0.0 
0.0584327 0.00261146 0.0 
0.14227 0.0186487 0.0 
0.600753 0.331818 0.0 
0.144442 -0.0109578 0.0 
0 0 0.0 
0 0 0.0 
0.813216 -0.192881 0.0 
0.807225 0.202719 0.0 
0.267495 0.00459216 0.0 
1.05249 0.0166517 0.0 
0.11098 0.0195732 0.0 
1.06402 -0.0163763 0.0 
0 0 0.0 
0.128845 0.0097975 0.0 
0 0 0.0 
0.719084 -0.0432463 0.0 
0.00840531 -0.000414163 0.0 
0.142248 0.00779327 0.0 
0.931791 -0.00561591 0.0 
0.92844 0.298959 0.0 
0 0 0.0 
4.17676e-285 9.48847e-287 0.0 
1.00559 0 0.0 
-7.1794e-192 6.50989e-193 0.0 
0.398392 0.00741478 0.0 
0.0347684 -0.00180598 0.0 
0.82957 0.200387 0.0 
0.243588 -0.0168478 0.0 
0.228516 0.00367851 0.0 
0.0104882 -0.00176685 0.0 
0.924264 0.235906 0.0 
0 0 0.0 
0.110933 0.00400366 0.0 
0.112921 0.00424854 0.0 
0.0301048 -0.00193752 0.0 
0.165933 0.00528103 0.0 
0.0991526 -0.0171362 0.0 
0 0 0.0 
-3.48787e-191 -1.8724e-192 0.0 
0.297526 0.0891491 0.0 
0.20145 0.0208167 0.0 
0.293166 0.00934159 0.0 
1.04386 -0.187273 0.0 
0 0 0.0 
1e-307 1e-307 0.0 
0 0 0.0 
0.176189 0.0340598 0.0 
0.376056 0.176261 0.0 
0.304022 -0.013783 0.0 
1.02792 -0.228705 0.0 
0 0 0.0 
0.16037 -0.0178449 0.0 
0.174218 0.00538288 0.0 
0.275112 0.00807198 0.0 
0.168809 0.00594757 0.0 
1e-307 0 0.0 
0.036638 -0.00650146 0.0 
0.0840694 -0.00552212 0.0 
0.0779216 -0.0179018 0.0 
0.0366342 -0.00490279 0.0 
0 0 0.0 
0.0983128 0.00383299 0.0 
0.559291 0.134545 0.0 
5.31282e-286 4.47882e-287 0.0 
0.535688 -0.477438 0.0 
0.0586569 0.00968671 0.0 
1.04081 -0.0730705 0.0 
0.059445 0.0175466 0.0 
0.0584238 0.00362063 0.0 
0.0734246 0.00107255 0.0 
-8.0629e-48 2.29037e-49 0.0 
0.145939 0.00631496 0.0 
2.37484e-08 -1.53792e-09 0.0 
0.0824568 -0.00723533 0.0 
0.135677 -0.00857081 0.0 
1.02497 0.0016428 0.0 
0.0944132 -0.0109398 0.0 
0.947031 -0.00600627 0.0 
0.0649494 -0.00185056 0.0 
0.0411389 -0.00583978 0.0 
3.24018e-237 -4.89043e-238 0.0 
0.0992235 0.00445786 0.0 
0.0284702 -0.00237547 0.0 
0.0108906 0.000835099 0.0 
0.135159 -0.00428972 0.0 
0 0 0.0 
0.00342233 -0.000144299 0.0 
-1.06742e-189 2.723e-190 0.0 
1.61686e-293 -5.57153e-295 0.0 
0.300351 -0.16182 0.0 
0 0 0.0 
0 0 0.0 
0.0927712 -0.0126664 0.0 
0.959336 0.0977267 0.0 
0.648857 0.0926449 0.0 
0.059004 -0.00705497 0.0 
0.0953351 -0.0109646 0.0 
0.115509 0.0125553 0.0 
0.569854 -0.0360692 0.0 
0 0 0.0 
0.138214 -0.0134516 0.0 
0.925626 -0.0336501 0.0 
0.843067 0.223128 0.0 
0.0378891 -0.00101612 0.0 
0.154375 0.00586947 0.0 
0.149255 0.0139262 0.0 
0.0570998 0.00255996 0.0 
1.00005 0.0280582 0.0 
0.0267778 -0.00408252 0.0 
0.997627 0.00182558 0.0 
0.00243008 0.000267064 0.0 
0.302485 0.001802 0.0 
0 0 0.0 
0 0 0.0 
0.526566 -0.0660766 0.0 
0.0106937 0.000426946 0.0 
0.993959 0.0330348 0.0 
0.522319 -0.0134447 0.0 
0.061123 -0.00783534 0.0 
2.24139e-147 1.6303e-148 0.0 
0.282079 -0.0104838 0.0 
0.6929 0.125114 0.0 
0.0472465 -0.0079406 0.0 
0.00166618 -0.000218207 0.0 
0.0244553 -0.00240098 0.0 
1.06462 -0.0931145 0.0 
0.0908207 0.0167462 0.0 
-4.47736e-52 7.44622e-53 0.0 
0.0238965 -0.00177097 0.0 
1.00381 -0.0906421 0.0 
0.0674426 -0.0147009 0.0 
0 0 0.0 
0.0162484 -0.00394121 0.0 
0.175724 -0.00374743 0.0 
1.5566e-290 -5.3639e-292 0.0 
0.171157 0.0143837 0.0 
0.321793 0.0148942 0.0 
0.135796 -0.0147282 0.0 
0.235235 -0.00610985 0.0 
0.0088565 -0.00131708 0.0 
0.0236566 -0.000869779 0.0 
0.108639 -0.0123326 0.0 
1.02708 -0.125504 0.0 
0.20984 -0.00222056 0.0 
0.0146462 -0.000950181 0.0 
0.962588 -0.259911 0.0 
0.124685 -0.0144405 0.0 
0.0752688 -0.00831544 0.0 
0.0683539 0.00111388 0.0 
0.0557745 -0.00720992 0.0 
0 0 0.0 
0.0183758 -0.00282619 0.0 
5.7104e-150 -2.20828e-150 0.0 
0 0 0.0 
1.88872e-05 6.80444e-06 0.0 
0.0148932 0.000269208 0.0 
0.509634 -0.0408121 0.0 
0.162678 0.012077 0.0 
0 0 0.0 
1.67442e-05 2.3663e-06 0.0 
0.62264 -0.0499801 0.0 
0.25624 0.00859236 0.0 
0.99816 -0.00336626 0.0 
0.0507592 -0.0068003 0.0 
0.0890851 -0.013987 0.0 
1.01169 -0.0343444 0.0 
0.0903546 -0.00291182 0.0 
0.0671028 -0.0126666 0.0 
1 0 0.0 
0.920254 -0.0188293 0.0 
0.0728042 -0.0174385 0.0 
0.697387 0.0675148 0.0 
0.196189 -0.0248805 0.0 
0.105375 0.00761353 0.0 
0.0937523 0.00381697 0.0 
3.71008e-280 -3.40166e-281 0.0 
0.53287 -0.0450612 0.0 
0.199746 -0.0208052 0.0 
0.0859636 -0.015014 0.0 
0.0764171 -0.00564503 0.0 
4.74704e-96 1.43765e-96 0.0 
0.146154 -0.00224943 0.0 
0.07756 -0.00921434 0.0 
0.0618278 0.00254096 0.0 
-6.21444e-48 -4.98641e-49 0.0 
0.370184 -0.00451522 0.0 
0.122387 0.00550576 0.0 
-2.89507e-62 5.93279e-63 0.0 
0.224892 0.0060773 0.0 
0.0672961 0.00289101 0.0 
0.0659528 0.00159989 0.0 
0.937347 0.137339 0.0 
0.0383844 -0.00508891 0.0 
0.0125932 0.00146644 0.0 
0.816767 0.22623 0.0 
0.129889 -0.0187913 0.0 
1.51593e-281 -1.38737e-282 0.0 
0.0719259 -0.0118617 0.0 
0.565954 -0.00590578 0.0 
0.10979 -0.00660101 0.0 
0.0545571 0.00271234 0.0 
0.490095 -0.0415084 0.0 
1e-307 1e-307 0.0 
0.158383 0.00594695 0.0 
0 0 0.0 
0.0565332 0.00141943 0.0 
0.127315 -0.0141083 0.0 
0.138907 0.0180414 0.0 
0.0559231 -0.00717532 0.0 
0.912497 -0.170643 0.0 
0.12581 0.0125039 0.0 
1.0809 -0.0811126 0.0 
0.972541 0.00809131 0.0 
0.473382 -0.0443704 0.0 
0.190569 0.020702 0.0 
0 0 0.0 
0.0246863 0.00156139 0.0 
0.0946122 0.00255613 0.0 
0.14536 0.00854434 0.0 
0.024254 -0.00315819 0.0 
0.0939185 -0.00109326 0.0 
1.49239e-07 2.8315e-08 0.0 
0.117344 -0.00638678 0.0 
0.0563625 -0.00252828 0.0 
0.606637 -0.267805 0.0 
0.0783283 -0.0121555 0.0 
1.52952e-284 -5.27058e-286 0.0 
1.00154 -0.000272595 0.0 
0 0 0.0 
0.718934 -0.0653686 0.0 
0.567662 0.04218 0.0 
0 0 0.0 
-2.52517e-54 9.30274e-56 0.0 
0.0889259 -0.00398464 0.0 
-3.55716e-186 6.52414e-187 0.0 
1.02517 0.0332011 0.0 
6.32683e-146 5.15655e-147 0.0 
0.0815565 0.00176205 0.0 
0.181473 0.0119954 0.0 
0.0720771 -0.0060243 0.0 
0.990649 -0.261173 0.0 
0.0585666 0.00313557 0.0 
0 0 0.0 
0.999884 -0.000214761 0.0 
0.243329 0.00855082 0.0 
0.292699 -0.0187661 0.0 
0.000510304 -6.06919e-05 0.0 
0.000250267 1.57429e-05 0.0 
1.06279e-105 -7.92177e-107 0.0 
0.582691 0.257233 0.0 
-6.27405e-52 1.20718e-52 0.0 
0.69588 0.0101639 0.0 
0 0 0.0 
0.0503044 0.00166107 0.0 
1.02017e-281 -1.07251e-282 0.0 
0 0 0.0 
0.77066 -0.13721 0.0 
0 0 0.0 
0.0303843 -0.00599696 0.0 
0.140695 -0.0151159 0.0 
0.295943 0.0228109 0.0 
0.00669166 -0.00273557 0.0 
0.768107 -0.101615 0.0 
0.0831271 0.00380338 0.0 
1.09083 -0.202625 0.0 
0.0617913 -0.0164943 0.0 
-1.1474e-195 -7.61644e-197 0.0 
0.181914 0.0200171 0.0 
4.50358e-287 -3.55376e-288 0.0 
0.16528 0.0199488 0.0 
0.00472212 -0.000275044 0.0 
0 0 0.0 
0.00997711 -0.00153413 0.0 
0.110529 -0.00253299 0.0 
0.815849 0.329302 0.0 
0 0 0.0 
1.08428 -0.217512 0.0 
1.03522 0.021366 0.0 
0 0 0.0 
0.0924542 0.00462229 0.0 
0.999729 -3.80487e-05 0.0 
0.0728366 -0.0088455 0.0 
1.10149e-235 6.28507e-237 0.0 
0.0251906 -4.72353e-05 0.0 
0.17927 0.00723662 0.0 
6.47245e-235 3.65838e-236 0.0 
-4.42371e-190 8.07504e-191 0.0 
0 0 0.0 
0.0945539 -0.00986323 0.0 
1.05398 -0.0278344 0.0 
3.33919e-144 3.63247e-145 0.0 
0 1e-307 0.0 
0.822561 -0.0354028 0.0 
0.14479 -0.0138979 0.0 
0.00324768 0.000154084 0.0 
0.103139 0.00900484 0.0 
0.0752004 -0.00735764 0.0 
0.418599 0.0257952 0.0 
0.407506 0.031149 0.0 
-7.97136e-49 6.385e-50 0.0 
0.117044 0.00711735 0.0 
0.855962 0.150909 0.0 
0 0 0.0 
0.132304 -0.0173391 0.0 
2.96512e-140 -5.30379e-143 0.0 
0.00557528 0.000206228 0.0 
0.153307 -0.0102167 0.0 
2.21229e-238 8.71522e-240 0.0 
0.847496 0.0217185 0.0 
0.100481 0.0075802 0.0 
0.000182486 -4.37832e-05 0.0 
0 0 0.0 
0.117428 0.0553709 0.0 
0.760775 0.320014 0.0 
0.999672 -0.000679734 0.0 
0.185527 -0.0176931 0.0 
1.00359 0 0.0 
2.59593e-237 -3.91878e-238 0.0 
0.929359 -0.0206395 0.0 
0.000875253 -5.21115e-05 0.0 
0.170574 -0.00584841 0.0 
6.8455e-150 -2.73425e-151 0.0 
0.0214489 0.00112401 0.0 
0.309951 0.0751034 0.0 
0.901518 0.31029 0.0 
0.0378429 -0.00366781 0.0 
0.78505 0.26217 0.0 
0.00861367 -0.00147171 0.0 
-1.50633e-54 7.43328e-56 0.0 
0.130391 0.00447613 0.0 
0.0513452 -0.00448698 0.0 
0.205797 0.0063406 0.0 
0.652149 -0.0372493 0.0 
0.935254 0.106961 0.0 
0.976771 -0.0273295 0.0 
0.986857 0.0559528 0.0 
0.134837 0.0140353 0.0 
0 0 0.0 
0 0 0.0 
0 0 0.0 
0.116828 -0.0118625 0.0 
0.031169 0.00183291 0.0 
0.0674448 -0.00650283 0.0 
0.809144 0.202375 0.0 
0.0438582 -0.00205687 0.0 
0.035849 -0.00142113 0.0 
2.33225e-147 2.10412e-148 0.0 
0.966089 -0.0364565 0.0 
7.84035e-150 -3.66223e-151 0.0 
1.00108 0.00105279 0.0 
0.134401 -0.00540436 0.0 
0 0 0.0 
0.332151 0.000139834 0.0 
0.062763 0.00154551 0.0 
0.0534621 -0.0122387 0.0 
0 0 0.0 
0.776103 -0.450711 0.0 
0.046849 -0.00534493 0.0 
0.794928 0.348944 0.0 
0.0380198 0.00215362 0.0 
0.084708 0.00906297 0.0 
-3.67868e-188 3.73662e-189 0.0 
0.0649963 -0.00692086 0.0 
1.06816 0.161983 0.0 
0.12842 0.00591738 0.0 
0.0803875 0.00586555 0.0 
0.395597 0.0301088 0.0 
0 0 0.0 
0.0541314 -0.00882631 0.0 
0 0 0.0 
0 0 0.0 
0.371278 0.0463685 0.0 
0.12894 -0.011264 0.0 
0.0166241 -0.000337184 0.0 
0.524153 0.0229307 0.0 
0.944461 0.0840148 0.0 
0.726537 0.334096 0.0 
0.0883139 -0.00928567 0.0 
0.0164671 -0.00110115 0.0 
0.100323 -0.0091612 0.0 
0.0462394 -0.00361006 0.0 
0.040595 0.00152606 0.0 
0.151729 0.0164977 0.0 
0.318234 -0.001023 0.0 
-6.07739e-188 -6.27793e-188 0.0 
0.276653 0.00751528 0.0 
0.0357365 -0.00345923 0.0 
0.0942973 -0.00745996 0.0 
0.20587 -0.0175935 0.0 
-1.24489e-52 3.36889e-54 0.0 
0.856859 -0.379587 0.0 
0.486423 -0.468779 0.0 
0.0300698 -0.00315657 0.0 
1.06006 -0.181221 0.0 
0 0 0.0 
1.00905 0.000886905 0.0 
0 0 0.0 
1.05882 -0.0120463 0.0 
1.78188e-06 -1.89973e-07 0.0 
-2.62183e-51 1.9598e-52 0.0 
0 0 0.0 
0.0343269 -0.00292074 0.0 
0.592154 0.295989 0.0 
0.149206 -0.0124805 0.0 
1.00002 -0.000569724 0.0 
0.154985 0.00544483 0.0 
0.147064 -0.00535598 0.0 
0.152686 -0.0127973 0.0 
0.0967527 -0.00946028 0.0 
0.140717 -0.0119265 0.0 
0.103972 0.00422655 0.0 
1.00331 -0.000848321 0.0 
0.0570022 -0.00564948 0.0 
0.65663 0.269474 0.0 
0 0 0.0 
0.358187 -0.0219788 0.0 
0 0 0.0 
0.982004 0.034268 0.0 
0.177684 0.00119435 0.0 
0.117241 -0.0101895 0.0 
0.0260679 0.00276902 0.0 
0.655707 -0.0403128 0.0 
0.880899 0.321731 0.0 
0.296501 -0.0204718 0.0 
0 0 0.0 
0.111776 -0.00986174 0.0 
0.504692 0.143048 0.0 
0.358006 0.0978153 0.0 
1.11677 0.0194527 0.0 
0.112742 0.00514405 0.0 
0.18989 -0.0149627 0.0 
0.271395 -0.0191512 0.0 
0.641445 0.350656 0.0 
1e-307 0 0.0 
0.976664 0.0126651 0.0 
0.501602 -0.0464136 0.0 
0.042795 0.00351127 0.0 
0.00252969 -0.000118713 0.0 
0.721793 0.307595 0.0 
0.0175817 0.00188391 0.0 
0.392414 -0.0187422 0.0 
0.153471 -0.0126871 0.0 
0.0984631 0.0112183 0.0 
0.0711078 0.00347545 0.0 
-3.65325e-52 3.19794e-54 0.0 
3.04611e-143 8.59442e-145 0.0 
0.173382 0.0314786 0.0 
0.106116 -0.00967435 0.0 
0 0 0.0 
-9.89566e-49 -1.00219e-49 0.0 
0.429602 0.0498084 0.0 
0 0 0.0 
0.714525 0.251756 0.0 
0.157346 0.0113849 0.0 
0.00119608 -0.000125866 0.0 
0.122404 0.00558293 0.0 
0.85622 0.283744 0.0 
0.0252032 -0.00230107 0.0 
0.137297 0.00565676 0.0 
3.46333e-05 2.19727e-06 0.0 
0.968003 -0.031515 0.0 
0.000206634 -2.22825e-06 0.0 
1.01645 -0.0175957 0.0 
0.0337933 0.000548819 0.0 
0.715619 0.182337 0.0 
0 0 0.0 
1.00007 -0.000264235 0.0 
0.0514872 0.00824997 0.0 
0.677187 0.227881 0.0 
0.104964 -0.00746214 0.0 
0 0 0.0 
0 0 0.0 
0.000472082 0.000104046 0.0 
0.300331 0.0555319 0.0 
0.107294 0.0140189 0.0 
0.999874 0.000776559 0.0 
0.835381 0.160075 0.0 
0.00516573 -0.000723747 0.0 
0 0 0.0 
0.505266 -0.100309 0.0 
0.798036 0.179888 0.0 
1.0543 0.0257002 0.0 
0.710345 0.254654 0.0 
0.599106 -0.329312 0.0 
0.257944 0.00173329 0.0 
0.620086 -0.199049 0.0 
0.0295922 0.0016772 0.0 
0.03382 -0.0118219 0.0 
0.092652 0.00451575 0.0 
0.762211 0.0806345 0.0 
0.185612 -0.0148636 0.0 
0 0 0.0 
0.145282 0.00626595 0.0 
1.0098 0 0.0 
0.102758 0.00504029 0.0 
0.999776 -0.000690377 0.0 
0.829674 0.338854 0.0 
0.864761 0.332766 0.0 
0.0734066 0.000243204 0.0 
0 0 0.0 
0 0 0.0 
1.05058e-283 -4.3932e-285 0.0 
4.01075e-237 3.15983e-239 0.0 
0.059541 -0.00643713 0.0 
0.240661 -0.0175998 0.0 
0.0909135 0.0132274 0.0 
0.313165 -0.0100836 0.0 
0.129114 0.00533332 0.0 
0.149301 0.00266307 0.0 
0.697785 0.206061 0.0 
0 0 0.0 
7.08465e-237 2.1303e-238 0.0 
0.662728 0.199062 0.0 
1.01049 0.00124415 0.0 
0.00107656 -8.6591e-05 0.0 
0.765293 -0.382711 0.0 
2.96865e-06 -1.76867e-07 0.0 
0.0364384 0.00170892 0.0 
0.810038 -0.154224 0.0 
0 0 0.0 
0 0 0.0 
0.102888 -0.00939671 0.0 
1.09382 0.0258831 0.0 
0.0158042 0.000145152 0.0 
0.133855 0.00613277 0.0 
0.0123803 -0.000853026 0.0 
1e-307 1e-307 0.0 
0.025696 0.000390532 0.0 
-1.39332e-50 1.09615e-51 0.0 
0.155379 -0.0129768 0.0 
1.01687 -0.00619553 0.0 
1.1027 0.105758 0.0 
1.04252 -0.164846 0.0 
0.109173 -0.00982369 0.0 
0.831449 -0.455382 0.0 
0.113921 -0.0212665 0.0 
0.315636 -0.0175731 0.0 
0.0518606 0.00162115 0.0 
0.110793 0.0818145 0.0 
0.53118 0.00729845 0.0 
1e-307 0 0.0 
0.193418 0.0147375 0.0 
-5.96919e-50 5.09516e-51 0.0 
0.143488 0.00574877 0.0 
0.471764 -0.0490795 0.0 
0.142537 0.013889 0.0 
1.61409e-277 -2.32274e-279 0.0 
1.06196 0.108429 0.0 
0.000248653 7.33721e-05 0.0 
1.05235 0.0161155 0.0 
1.02243 0.106639 0.0 
0.466651 -0.0396658 0.0 
0 0 0.0 
6.46773e-147 5.27138e-148 0.0 
0.0546415 -0.00738716 0.0 
0.0508069 0.00355279 0.0 
0.275114 -0.008342 0.0 
0.072739 0.00277534 0.0 
0.482861 -0.0796346 0.0 
0.748685 0.260409 0.0 
0.117756 -0.000344958 0.0 
0 0 0.0 
0.00152082 0.000192034 0.0 
0.694422 0.231689 0.0 
0.0413471 0.000797628 0.0 
0 0 0.0 
0.999263 0.00453097 0.0 
0 0 0.0 
0.744189 0.145883 0.0 
1e-307 1e-307 0.0 
0 0 0.0 
0 0 0.0 
0.733833 0.204659 0.0 
0.590667 0.0507414 0.0 
0.0172377 0.000520091 0.0 
0 0 0.0 
0.668906 0.124853 0.0 
1.09938 -0.145734 0.0 
0.0979584 0.00409545 0.0 
0.26711 0.0020922 0.0 
0.945233 0.0459625 0.0 
0.223141 -0.0167694 0.0 
0.321126 -0.00878469 0.0 
0.696269 0.154693 0.0 
0.112991 0.00537058 0.0 
8.82685e-146 1.60424e-147 0.0 
0.2677 0.016137 0.0 
0.0345518 -0.00401996 0.0 
0.36623 0.00623289 0.0 
0.198832 -0.0194361 0.0 
0.0146852 0.000909697 0.0 
0.835045 0.00496143 0.0 
0.0570676 -0.00622584 0.0 
0.868462 0.0156169 0.0 
1 0 0.0 
0.0699748 -0.00437772 0.0 
0.974773 -0.181721 0.0 
1.01592 0.0419042 0.0 
0.887953 -0.163194 0.0 
0.57261 0.0498819 0.0 
0 0 0.0 
1.04685 -0.00426112 0.0 
0.908171 0.104663 0.0 
0 0 0.0 
0.774476 -0.351988 0.0 
0.53638 0.0102794 0.0 
0.819745 -0.342754 0.0 
1.04454 0.120063 0.0 
0.846797 -0.385559 0.0 
0.481888 -0.460044 0.0 
0.660211 -0.00196915 0.0 
1.10214 0.121434 0.0 
0.275861 0.0224391 0.0 
0 0 0.0 
1.00072 0.00135969 0.0 
0.895187 -0.40372 0.0 
0.0964708 0.0043743 0.0 
1.0407 0.0425098 0.0 
0 0 0.0 
0.0243225 -0.000936233 0.0 
0.673245 0.0690702 0.0 
3.55226e-93 -3.40165e-94 0.0 
-9.64276e-50 -7.00733e-51 0.0 
0.0578924 0.00226485 0.0 
0.511782 0.0138117 0.0 
0.887294 -0.418997 0.0 
0.025178 0.0014713 0.0 
0 0 0.0 
0.625516 -0.102928 0.0 
0.000763806 -9.99277e-05 0.0 
0.000650519 3.30053e-05 0.0 
2.15291e-282 2.88519e-283 0.0 
0.396175 0.00242201 0.0 
0.00268314 0.000310058 0.0 
0.000272852 7.82798e-05 0.0 
0 0 0.0 
1.04057 0.0632614 0.0 
0 0 0.0 
0.736359 0.128501 0.0 
0.231756 0.0150925 0.0 
0.288512 0.00980719 0.0 
0.565156 0.170645 0.0 
1.03278 0.222992 0.0 
0.969055 0.280387 0.0 
0.124771 -0.0106954 0.0 
5.96426e-278 3.72526e-279 0.0 
0.494527 0.011737 0.0 
0.025493 0.000855859 0.0 
0 0 0.0 
1.00446 -0.00937961 0.0 
0.551885 -0.377752 0.0 
0 0 0.0 
0.845003 0.111036 0.0 
0 0 0.0 
1.06713 0.0379813 0.0 
0.995687 0.00422801 0.0 
0.00721282 -0.00125552 0.0 
0 0 0.0 
0.130094 0.054702 0.0 
0.0678273 -0.00556412 0.0 
0.760804 0.0802247 0.0 
0 0 0.0 
1e-307 0 0.0 
0.669354 -0.0784244 0.0 
0 0 0.0 
0.0506845 1.36875e-05 0.0 
2.54165e-143 -9.85821e-145 0.0 
0.00484194 0.00109051 0.0 
0.823437 0.254528 0.0 
1.2275e-95 -8.67866e-98 0.0 
0.988622 -0.0402466 0.0 
0.971895 -0.0242047 0.0 
0.709194 0.105483 0.0 
0.571218 -0.00337912 0.0 
0.85401 0.32224 0.0 
0.101975 0.00361687 0.0 
0.763873 0.104022 0.0 
7.12104e-07 -4.88397e-08 0.0 
0.830499 0.30041 0.0 
0 0 0.0 
0.998235 0.0146516 0.0 
1e-307 0 0.0 
0.921642 0.28363 0.0 
0.0510821 0.00350399 0.0 
9.49533e-150 1.00017e-151 0.0 
0.733761 0.0894219 0.0 
0.894114 0.319368 0.0 
0 0 0.0 
1.07973 -0.235996 0.0 
0.867337 0.312474 0.0 
0 0 0.0 
0.134098 0.00550181 0.0 
0.0108641 -3.38479e-06 0.0 
0 0 0.0 
0 0 0.0 
0.855983 0.332946 0.0 
0.402949 0.202195 0.0 
0.654242 -0.00604251 0.0 
0.143543 -0.00766108 0.0 
0.0594379 -0.00991005 0.0 
0 0 0.0 
-3.06867e-48 2.75469e-49 0.0 
0.889793 -0.0626821 0.0 
0.999145 -0.000848698 0.0 
0.0264127 0.00156637 0.0 
0.712128 -0.0332749 0.0 
0 0 0.0 
0.979861 0.0369339 0.0 
0.0559334 0.0031799 0.0 
0.198534 0.108311 0.0 
0.473873 -0.108227 0.0 
1.08036 0.0499146 0.0 
0.659077 -0.0772681 0.0 
2.40433e-149 -1.36179e-151 0.0 
1.10366 -5.93029e-05 0.0 
0.0823878 0.0119633 0.0 
0.564609 -0.0115197 0.0 
0 0 0.0 
0.83373 -0.209858 0.0 
-1.51185e-46 -5.57915e-47 0.0 
1.00107 0.00245111 0.0 
0.0325293 -0.0129411 0.0 
0.00822903 -0.00170328 0.0 
0 0 0.0 
0.67929 0.0622158 0.0 
0.88436 -0.243228 0.0 
0.926953 -0.0986953 0.0 
0.858179 0.162763 0.0 
0.794943 0.308093 0.0 
0.108471 0.00344278 0.0 
0.227189 0.0215003 0.0 
0.973151 0.275245 0.0 
1.07894 0.0106274 0.0 
0.767978 -0.0040998 0.0 
0 0 0.0 
4.63808e-05 -1.82349e-06 0.0 
0.640441 0.0547572 0.0 
0 0 0.0 
0.239541 0.00642283 0.0 
1.00043 0 0.0 
2.26185e-149 -9.10887e-151 0.0 
0.201203 -0.000611923 0.0 
0 0 0.0 
0.471972 -0.00689309 0.0 
0.447716 -0.0100414 0.0 
0.15068 0.00666406 0.0 
0 0 0.0 
0.930685 -0.213218 0.0 
0.894951 0.0863241 0.0 
1 0 0.0 
0.0995429 0.00423269 0.0 
0.531135 0.268702 0.0 
0.12191 0.00198153 0.0 
0.135013 0.00541964 0.0 
0 0 0.0 
1.04355 0.148852 0.0 
0.968741 -0.0398371 0.0 
1e-307 1e-307 0.0 
0.018018 -0.00132334 0.0 
0.534158 -0.00898795 0.0 
1.0007 0.00260652 0.0 
0.21938 0.0154768 0.0 
0.474731 0.000147825 0.0 
0.00187251 0.000168393 0.0 
0 0 0.0 
0.500358 0.00776199 0.0 
0.0772111 -0.00962921 0.0 
0.310803 0.00333084 0.0 
0 0 0.0 
0.0854017 0.00361277 0.0 
0.669217 -0.149275 0.0 
0.980634 0.270517 0.0 
0.160526 0.00658086 0.0 
0.175345 0.00687215 0.0 
0.828018 0.327658 0.0 
0.646275 0.074066 0.0 
0.0709089 0.00270326 0.0 
0.0368644 0.00215308 0.0 
0.617673 -0.337308 0.0 
0.183556 -0.00504081 0.0 
0.108253 0.00152476 0.0 
0 0 0.0 
0.20198 0.00779814 0.0 
0.742066 -0.0292315 0.0 
0.0939589 0.00477234 0.0 
0.137114 -0.000739621 0.0 
0.133886 0.00204703 0.0 
0.999644 0 0.0 
0 0 0.0 
1e-307 0 0.0 
0 0 0.0 
-2.20538e-185 9.83963e-187 0.0 
0.0146738 -0.00202948 0.0 
0.497744 0.0443661 0.0 
0.882125 0.325688 0.0 
0.0254401 0.00186913 0.0 
0.124357 0.00293155 0.0 
1.01918 0.135226 0.0 
0.213418 0.014562 0.0 
0.113002 0.00533239 0.0 
0.847977 -0.0930361 0.0 
0.979501 -0.0631794 0.0 
1.09311e-08 -2.60567e-10 0.0 
0.365091 0.00298988 0.0 
0.806684 -0.0938102 0.0 
0.0534054 -0.000530395 0.0 
0.802087 0.28513 0.0 
0.975617 -0.13202 0.0 
0.39213 -0.00130055 0.0 
0.619559 0.092754 0.0 
0.064134 0.00299486 0.0 
0 0 0.0 
1.06998 -0.0308968 0.0 
0.925485 0.127762 0.0 
1.00587 0 0.0 
0.807403 -0.0898337 0.0 
0.371869 0.00553852 0.0 
0 0 0.0 