<VTKFile type="UnstructuredGrid" version="0.1" byte_order="LittleEndian">
  <UnstructuredGrid>
    <Piece NumberOfPoints="14030" NumberOfCells="27908">
      <Points>
        <DataArray type = "Float64" NumberOfComponents="3" format="ascii">
0 0 0.0 
14 0 0.0 
14 8 0.0 
0 8 0.0 
4.15258 4.09761 0.0 
5.08687 3.99162 0.0 
5.15553 4.02606 0.0 
4.50051 4.04803 0.0 
4.01347 3.94819 0.0 
3.99002 4.07043 0.0 
4.5496 4.06986 0.0 
4.6932 4.07079 0.0 
4.68371 3.98199 0.0 
4.02745 3.96569 0.0 
5.07426 3.98522 0.0 
4.00249 4.02948 0.0 
4.52554 3.86399 0.0 
4.13157 3.93289 0.0 
4.01361 3.98438 0.0 
4.95866 3.98971 0.0 
4.01778 3.97712 0.0 
8.40909 0 0.0 
4.77805 4.0085 0.0 
8.49262 4.78815 0.0 
4.26762 3.95333 0.0 
4.26371 4.07017 0.0 
4.3984 4.07853 0.0 
4.45577 4.06678 0.0 
4.79812 4.0508 0.0 
5.67175 3.82802 0.0 
4.43739 4.00425 0.0 
4.06288 4.03688 0.0 
4.33109 3.95575 0.0 
4.23664 3.96813 0.0 
3.99135 4.001 0.0 
4.43771 3.97124 0.0 
5.69154 3.99499 0.0 
4.44379 4.0795 0.0 
4.83428 4.14692 0.0 
4.21428 3.90469 0.0 
4.07033 3.9752 0.0 
4.09422 4.06655 0.0 
4.11752 3.96599 0.0 
4.9633 4.01441 0.0 
4.41659 3.98967 0.0 
4.18875 3.93918 0.0 
4.51194 4.04817 0.0 
4.40848 4.07701 0.0 
4.64458 3.95384 0.0 
5.65044 4.05292 0.0 
4.01971 4.06736 0.0 
4.05789 4.06544 0.0 
4.10075 4.03591 0.0 
4.44755 4.06829 0.0 
4.50639 3.9621 0.0 
4.1753 4.06176 0.0 
12.4218 0 0.0 
4.09973 4.06883 0.0 
5.59759 3.98975 0.0 
4.0631 3.94627 0.0 
3.96586 4.23684 0.0 
4.09324 4.07263 0.0 
4.48463 4.0392 0.0 
5.01594 3.97412 0.0 
4.17201 3.97033 0.0 
7.16688 0 0.0 
4.00937 3.9897 0.0 
4.06915 4.04534 0.0 
5.01496 3.9966 0.0 
4.01761 3.98555 0.0 
4.08538 4.02507 0.0 
4.01482 4.01637 0.0 
7.79188 4.24469 0.0 
3.95004 3.97529 0.0 
3.99368 4.01426 0.0 
5.05172 3.98935 0.0 
4.72551 3.87111 0.0 
4.27959 3.96784 0.0 
4.94587 4.02527 0.0 
4.10323 3.9493 0.0 
5.10152 4.03913 0.0 
5.03044 4.01281 0.0 
4.84156 4.0088 0.0 
4.85305 4.03795 0.0 
4.4004 4.127 0.0 
5.00489 4.02516 0.0 
4.53813 4.06005 0.0 
4.48341 4.0268 0.0 
4.09424 4.05815 0.0 
4.70675 4.03295 0.0 
3.99988 3.98708 0.0 
4.64873 4.0597 0.0 
4.21788 3.91237 0.0 
4.07408 3.93311 0.0 
4.31756 4.06372 0.0 
4.28944 3.969 0.0 
4.08313 3.92832 0.0 
4.07534 4.04146 0.0 
3.9731 4.09746 0.0 
4.30049 4.08059 0.0 
4.98031 4.02035 0.0 
4.96596 4.019 0.0 
5.38499 3.85424 0.0 
4.21041 4.06743 0.0 
4.64124 3.97119 0.0 
4.33098 4.07053 0.0 
4.85795 3.99043 0.0 
4.86856 3.99147 0.0 
4.5104 4.08178 0.0 
3.94109 4.1534 0.0 
4.93522 4.02765 0.0 
4.07686 3.98202 0.0 
0 2.35318 0.0 
4.37162 4.07248 0.0 
4.9687 4.01617 0.0 
4.25453 3.96586 0.0 
4.17786 4.07881 0.0 
11.5595 3.82421 0.0 
5.11828 3.98868 0.0 
5.04607 4.02448 0.0 
4.1628 3.94775 0.0 
4.63833 3.96699 0.0 
5.09798 4.0273 0.0 
4.38124 4.07606 0.0 
4.08831 4.06631 0.0 
4.77498 3.99831 0.0 
6.04158 4.01215 0.0 
4.74305 4.05368 0.0 
4.4175 4.12976 0.0 
4.98025 3.99836 0.0 
4.07918 3.97615 0.0 
4.21285 3.96682 0.0 
4.32012 3.95203 0.0 
4.87485 3.99167 0.0 
4.48133 3.98582 0.0 
5.01116 4.01057 0.0 
4.33994 4.05525 0.0 
4.06005 4.03579 0.0 
4.52576 4.0968 0.0 
4.76597 4.05418 0.0 
5.0786 4.01053 0.0 
4.07308 4.04143 0.0 
3.97234 4.03785 0.0 
7.58784 3.93972 0.0 
4.14392 3.94806 0.0 
4.18416 3.91428 0.0 
5.00576 3.98835 0.0 
4.37092 3.90416 0.0 
5.6567 4.03692 0.0 
4.17071 3.92446 0.0 
4.06417 3.99461 0.0 
4.04371 4.02248 0.0 
4.98971 4.00888 0.0 
4.42078 4.06808 0.0 
4.78322 4.00312 0.0 
4.99603 3.97729 0.0 
4.92005 4.0049 0.0 
4.07792 4.04906 0.0 
4.81884 4.00631 0.0 
4.30801 4.06699 0.0 
4.89683 4.00801 0.0 
4.67318 4.04883 0.0 
4.05664 3.81012 0.0 
4.95286 4.03879 0.0 
4.35049 4.06778 0.0 
4.0089 3.92893 0.0 
4.84321 4.01746 0.0 
5.03788 3.97657 0.0 
4.01452 4.01796 0.0 
4.04073 4.00277 0.0 
4.24915 4.05618 0.0 
3.91992 4.22273 0.0 
4.34728 4.06998 0.0 
4.81338 3.97625 0.0 
4.26747 4.03967 0.0 
4.01925 4.05221 0.0 
4.9912 4.02804 0.0 
4.7904 4.04828 0.0 
4.38983 4.08712 0.0 
5.07235 3.99531 0.0 
4.09728 3.9695 0.0 
4.71366 3.97473 0.0 
4.98997 4.02393 0.0 
4.43221 4.08715 0.0 
5.02574 4.00669 0.0 
5.01943 4.02273 0.0 
3.96199 4.03038 0.0 
5.04864 4.04382 0.0 
4.1584 4.03851 0.0 
4.64934 4.0536 0.0 
4.05664 3.97681 0.0 
4.80406 4.00231 0.0 
4.6672 4.06821 0.0 
4.18813 4.09432 0.0 
4.88438 4.03747 0.0 
5.03245 3.98297 0.0 
5.03899 4.01992 0.0 
5.03627 3.96238 0.0 
5.09716 4.01631 0.0 
4.80339 3.98857 0.0 
4.00273 4.05728 0.0 
4.25608 3.97839 0.0 
4.553 3.97773 0.0 
4.4027 4.06153 0.0 
5.90787 4.24311 0.0 
4.55217 4.0013 0.0 
5.05402 4.03163 0.0 
4.89869 4.0097 0.0 
4.963 4.00839 0.0 
4.16902 3.98151 0.0 
4.68995 4.06338 0.0 
4.9008 4.03159 0.0 
4.11763 4.04808 0.0 
4.25158 3.98522 0.0 
4.52926 3.97227 0.0 
4.66242 4.0616 0.0 
4.63783 4.0403 0.0 
4.08624 4.00843 0.0 
4.213 4.06906 0.0 
4.41213 4.07211 0.0 
5.0636 3.98872 0.0 
4.29259 4.04824 0.0 
4.61083 3.96719 0.0 
3.98273 4.00621 0.0 
4.59624 4.08775 0.0 
4.83382 4.01745 0.0 
4.98107 3.97981 0.0 
4.63451 4.0786 0.0 
4.08673 4.04503 0.0 
5.03571 4.00684 0.0 
5.10865 4.0171 0.0 
4.03847 3.97803 0.0 
4.98218 4.02738 0.0 
4.08133 3.99501 0.0 
4.7872 3.98693 0.0 
4.27406 4.08825 0.0 
3.95046 4.00001 0.0 
4.35278 4.1158 0.0 
4.22383 4.06305 0.0 
4.00748 4.00932 0.0 
4.57981 3.97934 0.0 
5.94345 4.04715 0.0 
5.15771 3.9871 0.0 
4.60772 4.05536 0.0 
3.98172 4.06844 0.0 
5.85241 4.11057 0.0 
4.16064 3.96436 0.0 
8.95286 7.51699 0.0 
4.23328 4.06582 0.0 
7.10402 3.81046 0.0 
4.6584 4.07479 0.0 
3.99448 4.02842 0.0 
4.69405 3.97056 0.0 
3.95132 3.92388 0.0 
4.79066 4.01492 0.0 
4.5183 3.9594 0.0 
4.7617 4.05781 0.0 
4.78455 4.04475 0.0 
4.98463 4.01475 0.0 
4.88474 4.04745 0.0 
7.60022 2.93925 0.0 
5.00134 4.00081 0.0 
4.21005 3.96648 0.0 
4.74035 3.9849 0.0 
5.00388 4.02124 0.0 
4.43748 4.07616 0.0 
4.58854 4.05894 0.0 
5.01224 3.97834 0.0 
4.02873 4.02055 0.0 
4.2613 4.12085 0.0 
4.03357 3.99646 0.0 
5.11864 4.03417 0.0 
4.30563 4.07245 0.0 
4.41394 4.04955 0.0 
4.17483 4.06936 0.0 
4.59541 3.96295 0.0 
4.95928 3.99598 0.0 
4.84539 4.04074 0.0 
4.73466 4.06752 0.0 
4.05517 4.04952 0.0 
4.40159 3.88603 0.0 
4.04219 4.00834 0.0 
3.99543 4.04517 0.0 
0 5.5123 0.0 
4.9241 3.99527 0.0 
4.71212 4.05513 0.0 
4.86409 3.97859 0.0 
4.14163 4.07854 0.0 
4.62583 4.05379 0.0 
4.1189 3.9684 0.0 
4.28115 4.08293 0.0 
4.25325 4.08014 0.0 
4.5835 3.96668 0.0 
4.02949 3.97629 0.0 
4.59703 4.06538 0.0 
4.98174 4.03773 0.0 
4.2011 3.96348 0.0 
4.44103 3.94687 0.0 
4.27457 4.13781 0.0 
6.15144 4.20663 0.0 
4.12639 4.05926 0.0 
4.94651 4.01308 0.0 
4.20383 4.09167 0.0 
3.98227 4.04617 0.0 
4.00975 4.04675 0.0 
4.03283 4.06047 0.0 
4.28726 3.96465 0.0 
2.67239 0 0.0 
4.0583 3.981 0.0 
4.02105 4.04639 0.0 
4.15109 4.07691 0.0 
4.60897 3.87672 0.0 
5.43923 4.15182 0.0 
4.32593 4.06283 0.0 
4.03695 4.06573 0.0 
4.65664 4.06102 0.0 
4.76076 3.98714 0.0 
6.0793 3.10594 0.0 
4.95111 3.98506 0.0 
4.60768 3.96928 0.0 
4.23233 4.101 0.0 
4.2199 4.06218 0.0 
4.20051 4.07495 0.0 
3.99336 3.97236 0.0 
3.96707 3.95086 0.0 
4.66207 4.06414 0.0 
4.49695 4.05573 0.0 
8.3532 2.54258 0.0 
4.70446 3.98375 0.0 
4.29625 3.95054 0.0 
4.18746 4.11017 0.0 
4.71035 4.02722 0.0 
4.68661 4.05159 0.0 
4.64589 4.052 0.0 
8.75684 0.585272 0.0 
4.34324 4.06533 0.0 
4.5316 3.95473 0.0 
4.0393 4.0303 0.0 
4.26129 4.08041 0.0 
4.99347 4.02007 0.0 
5.66312 4.13285 0.0 
4.00749 3.97714 0.0 
4.25783 4.0741 0.0 
4.69605 3.985 0.0 
4.37055 4.09176 0.0 
4.24132 4.05308 0.0 
4.58066 4.05867 0.0 
4.75066 3.9715 0.0 
4.0277 4.00858 0.0 
4.41754 3.90262 0.0 
4.6702 4.07644 0.0 
4.43028 3.96942 0.0 
4.89355 4.01814 0.0 
3.97238 3.87987 0.0 
4.4891 4.09196 0.0 
4.00854 4.04134 0.0 
3.98742 4.01904 0.0 
4.43854 4.04123 0.0 
5.32361 4.17109 0.0 
5.8622 0.652372 0.0 
4.65612 3.98059 0.0 
5.00162 3.97999 0.0 
4.689 4.06029 0.0 
3.99746 3.98902 0.0 
3.98712 4.04304 0.0 
3.8957 4.03142 0.0 
4.37557 4.11575 0.0 
4.25008 4.04533 0.0 
4.47591 4.07395 0.0 
4.01731 3.97083 0.0 
4.16838 4.08853 0.0 
4.24651 4.05075 0.0 
4.09154 3.93527 0.0 
4.25289 4.08703 0.0 
4.6559 7.60199 0.0 
4.24196 3.98731 0.0 
4.10803 3.99306 0.0 
4.8481 3.97476 0.0 
4.97504 3.99552 0.0 
4.4483 3.96503 0.0 
3.99835 4.02918 0.0 
12.2764 4.67793 0.0 
7.25781 3.9327 0.0 
4.5109 4.06414 0.0 
4.56124 4.06812 0.0 
5.3262 4.0473 0.0 
5.05532 3.96524 0.0 
4.16422 4.06025 0.0 
4.02312 3.97943 0.0 
3.99623 4.03627 0.0 
4.03277 4.00935 0.0 
4.05133 4.02283 0.0 
5.86083 3.89155 0.0 
4.02985 4.02295 0.0 
4.93494 4.01332 0.0 
4.00489 3.99798 0.0 
4.1755 3.94311 0.0 
4.66774 4.0651 0.0 
4.0781 3.98964 0.0 
4.22361 4.04691 0.0 
4.42607 3.96465 0.0 
8.44624 4.28617 0.0 
4.76838 3.98047 0.0 
3.98214 3.99018 0.0 
4.03091 3.97176 0.0 
4.00652 4.03234 0.0 
4.24599 3.97916 0.0 
4.23915 4.11452 0.0 
4.06818 4.05086 0.0 
4.10116 3.97726 0.0 
4.00427 4.04292 0.0 
3.9788 4.01158 0.0 
4.76298 3.98718 0.0 
4.44207 3.99493 0.0 
4.99643 3.98691 0.0 
4.79159 3.97922 0.0 
4.20438 4.04613 0.0 
4.83252 4.03893 0.0 
4.19168 3.92984 0.0 
4.04839 4.01492 0.0 
4.34627 3.98181 0.0 
4.13248 4.05882 0.0 
4.82326 3.98897 0.0 
5.61713 3.88941 0.0 
4.98996 3.97879 0.0 
4.57086 4.06947 0.0 
6.10502 3.87963 0.0 
4.50504 3.97277 0.0 
8.58412 4.55697 0.0 
4.29307 4.05411 0.0 
4.34887 3.94164 0.0 
4.96918 3.99641 0.0 
9.09682 4.10304 0.0 
4.07198 4.07393 0.0 
4.1401 3.98497 0.0 
4.10988 3.95698 0.0 
4.75233 3.98177 0.0 
5.75839 3.98987 0.0 
4.04131 3.99766 0.0 
4.29388 4.08241 0.0 
4.24217 3.93272 0.0 
5.03609 3.98885 0.0 
0.712024 5.21358 0.0 
3.9756 4.08504 0.0 
4.037 4.008 0.0 
4.06005 3.96532 0.0 
4.30667 3.95404 0.0 
4.33769 3.9632 0.0 
4.04847 4.04817 0.0 
4.01118 3.98048 0.0 
4.68789 4.06704 0.0 
4.00488 3.99671 0.0 
4.11193 3.96791 0.0 
4.77233 3.97018 0.0 
3.9514 4.04615 0.0 
4.06493 3.98332 0.0 
4.03373 4.01881 0.0 
4.91995 3.99315 0.0 
4.14692 3.96719 0.0 
11.676 4.06587 0.0 
4.0241 4.0517 0.0 
4.03402 4.05512 0.0 
4.01068 3.99745 0.0 
4.02872 3.99494 0.0 
4.4999 4.06387 0.0 
4.40413 4.05425 0.0 
4.37697 4.12816 0.0 
5.29221 4.04721 0.0 
5.02756 3.99082 0.0 
4.49023 4.08399 0.0 
4.57915 3.97829 0.0 
4.41575 3.96869 0.0 
4.79679 3.97043 0.0 
3.98656 4.03721 0.0 
[...]
<PointData>
  <DataArray type = "Float64" Name="Vitesse" NumberOfComponents="3" format="ascii">
1 0 0.0 
0.999449 0 0.0 
1.00061 0 0.0 
1 0 0.0 
1.04548 0.191872 0.0 
0.14777 0.0119798 0.0 
0.178705 -0.0114967 0.0 
0 0 0.0 
0.953773 -0.316197 0.0 
0.820313 0.214139 0.0 
0.127206 -0.00851152 0.0 
0.234041 -0.0184697 0.0 
0.0208778 0.00074188 0.0 
0.890438 -0.314454 0.0 
0.173935 0.0170979 0.0 
0.616017 0.348938 0.0 
1.06461 -0.0108495 0.0 
0.993233 -0.116564 0.0 
0.203563 -0.105339 0.0 
0.0667507 0.00343314 0.0 
0.605556 -0.265832 0.0 
1.00805 0 0.0 
0 0 0.0 
1.03466 -0.0119396 0.0 
0.300046 -0.00176659 0.0 
0.0918428 0.00554302 0.0 
0.207783 -0.00108856 0.0 
0.0171573 -0.00120664 0.0 
0.113393 -0.0118646 0.0 
0.990374 0.00732646 0.0 
0 0 0.0 
0 0 0.0 
0.239045 0.00252583 0.0 
0.000443965 1.3852e-05 0.0 
0.300801 -0.135244 0.0 
0.0275336 0.000236641 0.0 
0.397815 0.00112447 0.0 
0.228343 -0.00558335 0.0 
0.986514 -0.0419965 0.0 
1.08 -0.0791237 0.0 
1.26699e-09 -2.01265e-10 0.0 
0.820503 0.20792 0.0 
0.138415 -0.0121261 0.0 
0.0178094 -0.00268595 0.0 
0 0 0.0 
0.72643 -0.0432313 0.0 
0 0 0.0 
0.177394 -0.00344086 0.0 
0.316811 0.0106357 0.0 
0.510412 -0.0147185 0.0 
0.869925 0.294107 0.0 
0.942076 0.305236 0.0 
0 0 0.0 
0.0349668 -0.000745007 0.0 
0.174677 0.00570727 0.0 
0.0730102 0.0106246 0.0 
0.999428 0 0.0 
0.837475 0.203914 0.0 
0.38185 0.00343743 0.0 
1.02463 -0.223153 0.0 
0.969244 0.103088 0.0 
0.934481 0.240289 0.0 
0 0 0.0 
0.231772 0.024368 0.0 
7.3391e-142 -6.62726e-143 0.0 
1.01114 0 0.0 
0 0 0.0 
0.301347 0.0893357 0.0 
0.0584442 0.00952566 0.0 
-7.54377e-195 2.9141e-195 0.0 
0 0 0.0 
-1.30301e-282 -1.06213e-282 0.0 
0.886039 -0.00562638 0.0 
0.770077 -0.122752 0.0 
0.386588 0.200486 0.0 
0.134296 0.0154083 0.0 
1.01449 0.00739322 0.0 
0.0122829 0.000249492 0.0 
0.0497468 -0.00676999 0.0 
0.775803 -0.100137 0.0 
0.2083 -0.0219391 0.0 
0.054872 -0.00893701 0.0 
0 0 0.0 
0.0618681 -0.00775934 0.0 
1.00163 0.0328772 0.0 
0.0788907 -0.0187861 0.0 
1.04521e-06 -8.06577e-08 0.0 
0 0 0.0 
0.563628 0.136918 0.0 
0 0 0.0 
0.526897 -0.459634 0.0 
0.0831283 -0.00738906 0.0 
1.04345 -0.0709454 0.0 
1.07843 -0.210349 0.0 
1.37481e-232 7.893e-234 0.0 
0.00391827 0.000282829 0.0 
1.0851 -0.195197 0.0 
1.55307e-05 2.51338e-06 0.0 
0.86568 0.160996 0.0 
0.321204 0.0132802 0.0 
0.0472151 -0.00798502 0.0 
0.0344517 -0.00510526 0.0 
0.973089 0.0174826 0.0 
0.141151 0.0129169 0.0 
0.11499 0.0050835 0.0 
0.0414735 0.00129047 0.0 
0.0187755 2.36831e-05 0.0 
0.0131324 0.00116548 0.0 
0.283748 -0.0110298 0.0 
0.917019 0.111374 0.0 
0.0550792 -0.0072708 0.0 
0 0 0.0 
1 0 0.0 
0.086191 0.00102102 0.0 
0.0258794 -0.003996 0.0 
0.0489254 -0.000921172 0.0 
0.652213 0.094539 0.0 
1.00029 -0.00331372 0.0 
0.182983 0.0136901 0.0 
0.0974406 -0.0158068 0.0 
0.583525 -0.0382762 0.0 
0.160698 0.0065787 0.0 
0.144521 -0.0140912 0.0 
0.159549 0.000901631 0.0 
0.851678 0.226932 0.0 
7.65304e-233 4.00623e-234 0.0 
0.473849 -0.00210774 0.0 
0.0987839 -0.00968473 0.0 
1.01081 0.0275786 0.0 
0.000544762 -2.80249e-05 0.0 
0 0 0.0 
0.0206958 0.000770472 0.0 
0.307893 0.00216277 0.0 
0.0137671 0.000211477 0.0 
0 0 0.0 
0.0335365 -0.0126339 0.0 
0 0 0.0 
2.75742e-11 7.81958e-12 0.0 
0.529053 -0.0145904 0.0 
0.119212 -0.0117901 0.0 
0.0966419 -0.00229122 0.0 
0.000137473 4.40894e-05 0.0 
0.701463 0.140744 0.0 
0.668001 -0.0556019 0.0 
0.634129 -0.051979 0.0 
1.06512 -0.0912726 0.0 
0.105851 0.018833 0.0 
0.974095 -0.0216448 0.0 
0.440623 -0.0114725 0.0 
1.0072 -0.089788 0.0 
0 0 0.0 
0 0 0.0 
0.0155411 -0.0039192 0.0 
0.0153711 0.000194894 0.0 
0 0 0.0 
0.198993 0.0169394 0.0 
0 0 0.0 
0.359154 0.099094 0.0 
0 0 0.0 
-4.25835e-49 -3.9437e-51 0.0 
0 0 0.0 
0.00555097 -6.65215e-05 0.0 
1.02196 -0.118868 0.0 
0.126852 -0.0147599 0.0 
-5.04191e-50 -6.39288e-52 0.0 
0.956258 -0.249702 0.0 
0 0 0.0 
0.216936 0.0239985 0.0 
1.96649e-08 1.30933e-08 0.0 
0 0 0.0 
0 0 0.0 
0.953437 0.0894352 0.0 
0.0272418 -0.00274875 0.0 
0.131525 0.00606993 0.0 
0 0 0.0 
0.830602 0.340775 0.0 
0.087375 -0.0154578 0.0 
0.088959 -0.00944656 0.0 
0.385761 0.00244634 0.0 
0.121164 0.0101861 0.0 
0.0602811 -0.00640203 0.0 
0.106175 0.00554167 0.0 
0.06751 -0.012974 0.0 
0.371228 -0.00433581 0.0 
0.0481788 -0.00340509 0.0 
0.0732993 -0.0184934 0.0 
0.70408 0.0831473 0.0 
0.207302 -0.0265408 0.0 
0 0 0.0 
0.0256167 -0.00308273 0.0 
-2.09192e-54 2.17966e-55 0.0 
0 0 0.0 
0.187393 -0.0146309 0.0 
0.943832 0.138775 0.0 
0.0782152 -0.00908523 0.0 
0.162931 0.0212924 0.0 
0.076864 -0.0131769 0.0 
0.342251 0.028117 0.0 
0.115238 -0.00617195 0.0 
0.0127011 0.000891428 0.0 
0.797907 0.274669 0.0 
5.15332e-145 1.32661e-146 0.0 
0.000904062 4.02671e-05 0.0 
1e-307 1e-307 0.0 
1.00493 -0.0139678 0.0 
0 0 0.0 
0.134518 -0.0198482 0.0 
3.2829e-144 -4.65018e-145 0.0 
0.0021125 -0.000204724 0.0 
0 0 0.0 
0.151225 -0.0131688 0.0 
0.0555973 -0.00693334 0.0 
-5.86953e-279 -8.2697e-280 0.0 
0 0 0.0 
0.0549908 0.00330776 0.0 
0.112722 -0.00951622 0.0 
-4.06997e-282 3.90649e-283 0.0 
0 0 0.0 
0.187623 0.0151902 0.0 
0.0839112 -0.00281302 0.0 
0.146713 0.0153221 0.0 
0 0 0.0 
0.147786 0.00638829 0.0 
0.477683 -0.0221388 0.0 
0.40328 -0.0196151 0.0 
0 0 0.0 
0.168496 0.0103796 0.0 
0.294288 -0.0189958 0.0 
2.7577e-05 9.31966e-06 0.0 
0.0590746 -0.00176354 0.0 
0.124342 -0.00654221 0.0 
6.04081e-140 -5.30629e-141 0.0 
0.0793667 -0.0123652 0.0 
0 0 0.0 
0.0200888 0.000617473 0.0 
0.568715 0.0405369 0.0 
0.721117 -0.0497748 0.0 
0.933271 0.0440137 0.0 
-7.33766e-50 -1.085e-50 0.0 
2.16668e-108 1.68092e-108 0.0 
0.00150013 0.000206546 0.0 
0.53793 -0.0100876 0.0 
0.212062 0.0130764 0.0 
0.00610306 -0.000644415 0.0 
0.808459 0.192005 0.0 
0.814878 -0.0175826 0.0 
0.104821 -0.0046779 0.0 
1.0068 -0.00120353 0.0 
0.0367076 0.00571225 0.0 
0.930964 -0.00624382 0.0 
0.259424 -0.0183144 0.0 
0.595568 0.275926 0.0 
0.142385 0.00615927 0.0 
0.885179 -0.152077 0.0 
0 0 0.0 
0.213895 0.00726494 0.0 
0.148052 -0.0140173 0.0 
0.0595539 -0.00660888 0.0 
0.0294484 -0.00591508 0.0 
0.144863 -0.0152575 0.0 
1.02921 0.000931713 0.0 
0.00715564 -0.00308836 0.0 
0.0263547 0.000656032 0.0 
0.0178588 0.000982831 0.0 
0.0618822 -0.0173354 0.0 
0.166394 -0.00429486 0.0 
0.0259684 -0.00150265 0.0 
0.19339 0.0230622 0.0 
0 0 0.0 
1.07658 0.109026 0.0 
0 0 0.0 
0.190659 -0.0180215 0.0 
0.104523 0.00228967 0.0 
0 0 0.0 
0.364424 0.0496513 0.0 
0.19262 0.00733276 0.0 
0.0123284 0.000498555 0.0 
0.0736471 -0.00897963 0.0 
0.225122 -0.0189917 0.0 
0.685698 0.231374 0.0 
1.05031 -0.0238101 0.0 
0 0 0.0 
0.72708 0.266391 0.0 
1 0 0.0 
0.00249585 0.000135252 0.0 
0.088488 -0.00871498 0.0 
0.129547 0.0054805 0.0 
0.823528 0.156499 0.0 
0.00683756 -0.000713572 0.0 
0.049831 -0.00273377 0.0 
0.41695 0.0240433 0.0 
0.40796 0.0323653 0.0 
0.143393 0.00577753 0.0 
0.35107 -0.10378 0.0 
0.105654 -0.00747684 0.0 
0.137161 -0.0179969 0.0 
0.0988498 0.000360096 0.0 
0.382447 0.00680436 0.0 
1.11734 0.105997 0.0 
0.993607 -0.0114387 0.0 
0.299878 0.0566248 0.0 
0.00701019 -0.0012322 0.0 
0.852057 0.111231 0.0 
0.725984 0.197083 0.0 
0.77522 0.333037 0.0 
0.895735 0.331136 0.0 
0.074545 0.00367952 0.0 
1.00283 0 0.0 
0 0 0.0 
0.809874 0.360408 0.0 
0.73606 0.130673 0.0 
1.01978 -0.000474895 0.0 
0.952527 -0.0306355 0.0 
1.24879e-234 7.52767e-236 0.0 
0.916106 0.319122 0.0 
0.102411 -0.00872885 0.0 
0.00796739 0.00064726 0.0 
1.0166 -0.0015389 0.0 
0.105364 0.0056452 0.0 
0.122454 0.00557183 0.0 
0.931812 0.104559 0.0 
3.25663e-08 1.88995e-09 0.0 
0.42982 0.0488832 0.0 
0.757533 -0.365935 0.0 
0.83024 -0.196623 0.0 
0.139063 -0.0113826 0.0 
1.76733e-147 3.5854e-149 0.0 
1.01848 0.0157646 0.0 
0.0126675 0.000929604 0.0 
0.343638 0.00110832 0.0 
1.0796 0.164071 0.0 
0 0 0.0 
0.0383917 -0.00399761 0.0 
0.0078715 -0.00088613 0.0 
1.0069 0.00230953 0.0 
1.39472e-96 6.97928e-98 0.0 
0.279445 0.00867007 0.0 
-5.91907e-53 -2.05417e-53 0.0 
0.394362 0.0286998 0.0 
0.0532191 -0.0126117 0.0 
0.895305 -0.0221609 0.0 
0.767162 -0.440194 0.0 
0.221084 0.0141436 0.0 
5.30685e-05 3.25851e-06 0.0 
0.495902 0.00854005 0.0 
0 0 0.0 
0.0165931 -0.00161731 0.0 
0.154301 0.00706496 0.0 
0 0 0.0 
0.958824 -0.0129982 0.0 
0.286586 -0.0200621 0.0 
0.0490579 0.00275474 0.0 
5.15797e-05 -1.01996e-05 0.0 
0.949824 -0.150011 0.0 
0.450123 -0.0105685 0.0 
0.741399 0.34778 0.0 
0.51411 0.164374 0.0 
0 0 0.0 
0.987727 -0.0345566 0.0 
1.01145 -0.00102809 0.0 
0.0232479 0.00103375 0.0 
0.176928 0.0190162 0.0 
0.119316 -0.0108487 0.0 
0.478832 -0.447257 0.0 
0.708933 0.221339 0.0 
0.839198 0.0162837 0.0 
0.907022 0.0330472 0.0 
0 0 0.0 
0.143873 -0.00545668 0.0 
0.850817 -0.373006 0.0 
0.911664 0.150681 0.0 
0 0 0.0 
1.05655 -0.176931 0.0 
0.592302 0.0513068 0.0 
1.00853 0.000818476 0.0 
0 0 0.0 
0 0 0.0 
0.159764 0.00718765 0.0 
0.0224885 0.00181387 0.0 
0.115757 0.00420923 0.0 
0.606268 0.31412 0.0 
1.00075 -0.00134017 0.0 
0.654992 0.0131005 0.0 
0.0222365 -0.000467865 0.0 
0.112733 -0.00720018 0.0 
0.37494 -0.0214103 0.0 
0.320757 0.0273974 0.0 
0.0695904 0.00927293 0.0 
0.281037 -0.108281 0.0 
0.669828 0.285889 0.0 
0 0 0.0 
0 0 0.0 
0.843797 0.00684467 0.0 
4.97659e-120 2.73495e-120 0.0 
0.00255367 -0.000468854 0.0 
0 0 0.0 
0.669212 -0.0415249 0.0 
0.153383 -0.0125304 0.0 
0 0 0.0 
0 0 0.0 
0.113497 0.00303245 0.0 
0.773874 -0.00369552 0.0 
0.0729685 0.00326626 0.0 
0.57025 -0.224001 0.0 
0.609406 -0.191229 0.0 
0.65717 0.365658 0.0 
0 0 0.0 
1.059 0.120814 0.0 
0.571157 0.171384 0.0 
4.00227e-101 -3.73447e-102 0.0 
0.735998 0.321787 0.0 
0.541285 0.0320032 0.0 
0.00894621 0.000907968 0.0 
0 0 0.0 
0.114596 0.0127933 0.0 
0.0945802 0.00409915 0.0 
0 0 0.0 
0.0543512 -0.00683158 0.0 
0.897494 -0.0622322 0.0 
0 0 0.0 
0 0 0.0 
0.234874 0.0476693 0.0 
0.0173968 0.000565122 0.0 
0.866198 0.0119743 0.0 
0.18272 0.0135615 0.0 
0.136945 -0.00879179 0.0 
0.870192 0.0023785 0.0 
0.0369238 0.00120839 0.0 
1.05558 -0.0108317 0.0 
0 0 0.0 
0.487323 -0.000157014 0.0 
0.0116805 0.000413172 0.0 
0.834427 0.0442405 0.0 
0.982121 0.286181 0.0 
0 0 0.0 
0.490492 -0.0484439 0.0 
0.0533531 0.00323058 0.0 
0.422511 0.00234438 0.0 
0 0 0.0 
0.378351 0.0183902 0.0 
0.754054 -0.0279898 0.0 
0.124936 0.0167095 0.0 
0.999899 0.000926933 0.0 
0.845398 0.170946 0.0 
0 0 0.0 
0.511933 -0.0966964 0.0 
0.272575 0.0022739 0.0 
0.111851 0.00135743 0.0 
0.719936 0.258822 0.0 
0.595547 -0.325703 0.0 
0.188576 -0.0155324 0.0 
0 0 0.0 
0.0856622 -0.00485298 0.0 
0.175767 0.00750541 0.0 
0.769143 0.0941561 0.0 
0 0 0.0 
0 0 0.0 
0.0201995 0.00164283 0.0 
0.034868 -0.00193665 0.0 
1.00056 -0.00259253 0.0 
0.844718 0.349722 0.0 
0.879735 0.341929 0.0 
0 0 0.0 
0 0 0.0 
0.0126817 -7.40921e-05 0.0 
0 0 0.0 
1.02835 0.0444265 0.0 
0.358629 -0.0201237 0.0 
0.105396 0.0155271 0.0 
0.314455 -0.0102284 0.0 
0.0106937 0.00155066 0.0 
0.052484 0.00313166 0.0 
0.182885 0.00802326 0.0 
0.673723 0.215443 0.0 
0.836183 0.265856 0.0 
0.813452 -0.151553 0.0 
0.578948 -0.0108685 0.0 
0.013189 0.000185134 0.0 
0 0 0.0 
0.426875 0.00633562 0.0 
0.105034 -0.0091894 0.0 
0.110504 -0.00992127 0.0 
0.22549 0.02355 0.0 
1.00308 -0.00671132 0.0 
0.15587 -0.0129489 0.0 
0.227521 -0.0169429 0.0 
0.0596153 -0.0100126 0.0 
0.879346 -0.231099 0.0 
0.224931 -0.00725709 0.0 
0.266853 0.0013355 0.0 
0.821324 -0.441874 0.0 
0.117488 -0.0225445 0.0 
-6.66441e-287 -1.27369e-288 0.0 
0.612557 -0.31559 0.0 
0.00750891 0.00104455 0.0 
0.189281 0.0173599 0.0 
5.54857e-239 3.08904e-240 0.0 
1.0335 0.106421 0.0 
0.377773 0.00580369 0.0 
0.224463 0.0095623 0.0 
0.273808 -0.00886804 0.0 
0.970085 -0.0466717 0.0 
0.0053147 -0.000425297 0.0 
0.744868 0.147023 0.0 
0.479819 -0.0420064 0.0 
0 0 0.0 
0 0 0.0 
0.0252061 -0.0022695 0.0 
0.00714428 -0.000966526 0.0 
0.0762205 -0.00867997 0.0 
0.491896 -0.0804674 0.0 
0.761475 0.274003 0.0 
0.486177 -0.0064393 0.0 
0.854522 -0.0933677 0.0 
0.706379 0.246995 0.0 
0.528583 0.0282287 0.0 
1e-307 1e-307 0.0 
0.0063944 -0.000902352 0.0 
0 0 0.0 
0.12243 0.0051893 0.0 
0 0 0.0 
0 0 0.0 
0 0 0.0 
0.744898 0.218777 0.0 
0 0 0.0 
0.000824513 8.02935e-05 0.0 
0 0 0.0 
0.67751 0.141231 0.0 
1.01546 -0.00204532 0.0 
0.146285 0.00632813 0.0 
1.04528 0.228163 0.0 
0.330604 0.0154597 0.0 
0.113559 0.00132635 0.0 
0.31718 -0.00835655 0.0 
0.705778 0.170111 0.0 
0.339014 0.0666361 0.0 
0.203189 -0.0197426 0.0 
0.0123561 -0.00165918 0.0 
0 0 0.0 
1.04483 0.00376055 0.0 
0 0 0.0 
0.541405 0.0138998 0.0 
1 0 0.0 
0.441503 -0.00666986 0.0 
0.974855 -0.178166 0.0 
0.0810507 -0.0746866 0.0 
0.579158 -0.0119974 0.0 
0.573809 0.051144 0.0 
0.839017 -0.00413675 0.0 
1.1169 0.122185 0.0 
1.01553 0.0226422 0.0 
0.767503 -0.335724 0.0 
0.0263183 0.00143523 0.0 
0.812603 -0.327886 0.0 
0.0513337 -0.00610187 0.0 
0.838218 -0.371196 0.0 
0.473903 -0.44265 0.0 
0.421028 -0.0134713 0.0 
0.00124938 -0.000187319 0.0 
0.105357 0.00560296 0.0 
0.844552 0.311587 0.0 
0.887467 -0.395301 0.0 
0.00057062 -6.57488e-05 0.0 
0.544361 0.288704 0.0 
0 0 0.0 
0 0 0.0 
0.674421 0.0690792 0.0 
1e-307 1e-307 0.0 
0.0228235 0.00195186 0.0 
0.0126423 -0.000628101 0.0 
0.877649 -0.406181 0.0 
0.809094 0.32027 0.0 
1.00803 -0.00594752 0.0 
0.633765 -0.102127 0.0 
0.103504 0.00460302 0.0 
1.03513 -0.00284692 0.0 
0.993409 0.276123 0.0 
0 0 0.0 
0.0224391 -0.00131911 0.0 
0.998289 -0.00752475 0.0 
0.123004 -0.0104965 0.0 
0.310897 0.0110478 0.0 
0.92591 -0.202702 0.0 
0.906257 0.113956 0.0 
0 0 0.0 
1.07355 -0.227967 0.0 
0 0 0.0 
0.985261 -0.0615368 0.0 
0 0 0.0 
2.31493e-239 -3.81091e-241 0.0 
0 0 0.0 
0.546513 -0.355169 0.0 
9.86447e-05 -1.09929e-06 0.0 
0.952932 -0.0374265 0.0 
-3.69175e-194 -4.65178e-196 0.0 
0.864325 0.135755 0.0 
0.661884 -0.00674247 0.0 
0.986928 0.281943 0.0 
0.0140269 -0.00205547 0.0 
0.649026 0.0726925 0.0 
0.76445 0.0804873 0.0 
0.177758 0.00451257 0.0 
0 0 0.0 
0.678387 -0.0774318 0.0 
0.00159455 0.000117384 0.0 
0.4037 0.20617 0.0 
1.00221 -0.0477587 0.0 
0.00531863 0.00106967 0.0 
0 0 0.0 
0.36847 0.0106006 0.0 
0.53885 -0.00964348 0.0 
0.0301068 -0.0132804 0.0 
0.717079 0.120639 0.0 
0.988528 0.195909 0.0 
0.868767 0.332611 0.0 
0.589261 0.0127048 0.0 
0.771612 0.117404 0.0 
0 0 0.0 
0.0118098 -0.00166171 0.0 
0.903628 0.0929642 0.0 
0.0160547 -0.00220337 0.0 
0.934176 0.288858 0.0 
0 0 0.0 
0.999975 0 0.0 
0.741062 0.103838 0.0 
0.908566 0.32703 0.0 
0.111328 0.000329161 0.0 
0.881054 0.319355 0.0 
0.012636 0.000427035 0.0 
1.09654 0.0151072 0.0 
0.191628 0.00827786 0.0 
0.47516 -0.0851971 0.0 
0.871027 0.342974 0.0 
0.110358 -0.0118661 0.0 
0.445237 0.0240464 0.0 
4.83108e-94 5.37386e-95 0.0 
4.15205e-145 -1.12911e-147 0.0 
0.0564927 0.00254176 0.0 
0.0498003 0.00202406 0.0 
-2.84688e-64 -9.30567e-65 0.0 
0.0472988 0.00233836 0.0 
0.34769 -0.000620446 0.0 
0.772332 0.0279406 0.0 
0.0188959 0.00150445 0.0 
0.904813 0.209669 0.0 
0.642066 0.0545625 0.0 
0.681382 0.0627099 0.0 
0.661277 -0.0597913 0.0 
0.933737 0.128271 0.0 
0 0 0.0 
0.120921 0.00400886 0.0 
0.139702 -0.0142304 0.0 
0.00326301 -5.80489e-05 0.0 
0.504573 0.00406043 0.0 
1.00132 0.0029353 0.0 
0 0 0.0 
0.867637 -0.0116262 0.0 
0 0 0.0 
0.200803 -0.00224348 0.0 
0.203676 0.000978918 0.0 
0.302528 0.00328192 0.0 
0.934117 0.177087 0.0 
0.105409 0.00488002 0.0 
1.05591 0.150725 0.0 
0.995142 -0.315662 0.0 
0.0198783 -0.0478723 0.0 
0.982635 0.0960405 0.0 
1.0119 -0.0212417 0.0 
1.00078 0 0.0 
0.0910932 0.00393556 0.0 
0.351288 -0.00917329 0.0 
0.0447159 -0.00463483 0.0 
9.96778e-113 3.96166e-113 0.0 
0.131075 0.00304338 0.0 
0.0246271 0.000378154 0.0 
0.795957 0.106695 0.0 
0.14902 0.0063384 0.0 
0.781229 0.00171448 0.0 
0.898811 -0.0492926 0.0 
0.0263763 0.00133114 0.0 
1.00114 0 0.0 
0 0 0.0 
0.98253 -0.0467471 0.0 
0.813285 -0.09358 0.0 
0 0 0.0 
0.345753 0.0606999 0.0 
1.00096 0.00313251 0.0 
1.01402 0.190638 0.0 
0 0 0.0 
0.0689434 0.00362107 0.0 
0.111242 0.00189567 0.0 
0 0 0.0 
0.142464 0.00248267 0.0 
0.66904 -0.131663 0.0 
0.0521047 0.00233722 0.0 
-2.12065e-56 -1.16374e-56 0.0 
0.814346 -0.0193499 0.0 
0.842335 0.335801 0.0 
0.235718 0.00654784 0.0 
0.181577 -0.00681168 0.0 
0.621423 0.194862 0.0 
1.06894e-237 3.00507e-240 0.0 
0.996698 -0.326445 0.0 
0.504077 0.0658089 0.0 
1.03187 0.136359 0.0 
0.997781 0.000246872 0.0 
0 0 0.0 
0.976883 -0.129857 0.0 
0 0 0.0 
0.0350547 0.00156184 0.0 
0.975349 -0.182557 0.0 
1.01361 -0.0727822 0.0 
3.10158e-114 5.41417e-115 0.0 
0.896874 0.33406 0.0 
1.00739 -0.000589234 0.0 
0 0 0.0 
0.242872 0.0060455 0.0 
0.887016 -0.225335 0.0 
0.352493 0.0033197 0.0 
0.444551 0.00840236 0.0 
0.185694 0.0078182 0.0 
0.438842 -0.0356037 0.0 
0.0208311 0.000818497 0.0 
0.958889 0.0424721 0.0 
0.742969 0.058679 0.0 
0.815603 0.297141 0.0 
2.76222e-114 5.01632e-115 0.0 
0.580876 0.293903 0.0 
0.627247 0.11074 0.0 
0.510046 -0.00297384 0.0 
0 0 0.0 
0.262698 0.0164268 0.0 
0.808004 -0.0769384 0.0 
0.933027 0.00231823 0.0 
0 0 0.0 
0.342974 0.011096 0.0 
1.01315 0.271785 0.0 
0.00452638 -0.000656461 0.0 
0.0269146 0.000830581 0.0 
-1.70182e-53 -2.30106e-54 0.0 
0.0578927 0.00246718 0.0 
0 0 0.0 
0.591507 0.334219 0.0 
0.606027 0.0155144 0.0 
1.00368 0 0.0 
0.60178 -0.167003 0.0 
0.104801 -0.0047025 0.0 
0 0 0.0 
0 0 0.0 
0.617281 -0.101793 0.0 
0.155186 0.0050009 0.0 
1.06327 -0.0525459 0.0 
0.952853 -0.226828 0.0 
0.635645 0.0768001 0.0 
0.0475105 -0.00284743 0.0 
1.00247 -0.000897727 0.0 
0 0 0.0 
0.268748 0.0209334 0.0 
0.0502565 -0.00424299 0.0 
1.02019 0.0114282 0.0 
1.00178 0.265242 0.0 
1.07188 0.143426 0.0 
0.95653 0.285507 0.0 
0.587244 -0.123977 0.0 
0.833029 0.257358 0.0 
0 0 0.0 
0.0076018 0.000241433 0.0 
1.02283 -0.148238 0.0 
0.66261 -0.0652791 0.0 
0.870233 -0.192537 0.0 
1.0106 0.253473 0.0 
0.991796 0.0578487 0.0 
0.263781 0.0230548 0.0 
0.137754 0.00446412 0.0 
0.253222 0.029789 0.0 
0.00371992 -0.000466488 0.0 
0.554843 -0.0987244 0.0 
0.000243096 -3.36802e-05 0.0 
0.388031 0.0342355 0.0 
0.665996 0.0245283 0.0 
0.703422 -0.0591603 0.0 
0.0189799 0.000137912 0.0 
0.208695 -0.00442949 0.0 
0.535821 -0.0502981 0.0 
1 0 0.0 
0.0785176 0.00842955 0.0 
0.784802 0.26027 0.0 
0.232793 -0.00139561 0.0 
0.843152 0.0790406 0.0 
0.444107 -0.00734473 0.0 
0.0173084 0.000179263 0.0 
0.265465 0.00244304 0.0 
0.00240008 0.000260696 0.0 
0.920089 0.25474 0.0 
0 0 0.0 
0.758088 -0.104635 0.0 
1.04546 -0.240375 0.0 
1.01717 0.00134244 0.0 
0.22924 0.00668813 0.0 
0.0304768 -0.0111293 0.0 
0.817505 0.0249624 0.0 
1.0587 -0.00106219 0.0 
0 0 0.0 
0.583052 0.00978411 0.0 
1.00971 0 0.0 
3.50783e-236 1.9529e-237 0.0 
0.0948189 -0.00851622 0.0 
0 0 0.0 
0.8269 -0.0475641 0.0 
1.00492 0 0.0 
0.53419 0.0186048 0.0 
1.00183 -0.000209589 0.0 
0.568885 0.00472173 0.0 
0.016771 0.00163858 0.0 
1.03421 0.0501638 0.0 
0 0 0.0 
0.651642 -0.018295 0.0 
0.385898 0.0454584 0.0 
0 0 0.0 
0.324297 0.0895658 0.0 
0 0 0.0 
0.273099 -0.00425978 0.0 
0.0285479 0.000309053 0.0 
1.0769 -0.00168053 0.0 
0.0942323 0.00486009 0.0 
4.89806e-05 -9.40737e-08 0.0 
0.173975 0.00969012 0.0 
0.968476 0.162834 0.0 
0.256782 0.0233952 0.0 
0.679075 0.01936 0.0 
0.227827 0.00627455 0.0 
0.101128 0.0051811 0.0 
0.458375 -0.0326156 0.0 
0.831482 -0.0435799 0.0 
0 0 0.0 
0.180414 0.00267607 0.0 
0.896866 0.185962 0.0 
0 0 0.0 
1.10347 0.141323 0.0 
0.496633 0.136181 0.0 
0.00839434 0.00036097 0.0 
0.791114 0.166896 0.0 
0.0507899 -0.0049563 0.0 
0 0 0.0 
0.0290777 0.00107355 0.0 
0.398706 0.176348 0.0 
0.375717 -0.0302898 0.0 
0 0 0.0 
0.538209 -0.0110807 0.0 
0.000737463 6.89895e-05 0.0 
0 0 0.0 
0.95559 0.0803341 0.0 
0.268218 0.00883323 0.0 
0.930744 0.0958899 0.0 
3.864e-239 6.83976e-240 0.0 
0.495343 -0.0398062 0.0 
0.459373 -0.300811 0.0 
0.0129008 0.000625232 0.0 
-9.38215e-188 -1.25051e-188 0.0 
0.135495 -0.000728885 0.0 
0.552936 -0.00577315 0.0 
1.00962 0.00964868 0.0 
0 0 0.0 
0.328619 0.0104924 0.0 
0.0068363 -0.000588232 0.0 
0 0 0.0 
1.07025 -0.147757 0.0 
0.872065 0.0116877 0.0 
0.0127468 0.000312753 0.0 
1.01001 0 0.0 
0 0 0.0 
0.892325 -0.208992 0.0 
1.07417 0.0498258 0.0 
0.00382173 -0.000629929 0.0 
0.0794697 -0.00578633 0.0 
0.126624 0.0172633 0.0 
0.0354279 -0.00265027 0.0 
0.961913 -0.0347336 0.0 
0.999476 -0.000223023 0.0 
0.883954 -0.0501105 0.0 