<VTKFile type="UnstructuredGrid" version="0.1" byte_order="LittleEndian">
  <UnstructuredGrid>
    <Piece NumberOfPoints="13633" NumberOfCells="27113">
      <Points>
        <DataArray type = "Float64" NumberOfComponents="3" format="ascii">
0 0 0.0 
14 0 0.0 
14 8 0.0 
0 8 0.0 
5.32301 4.17012 0.0 
4.19246 4.04169 0.0 
5.15553 4.02606 0.0 
4.36167 3.95192 0.0 
4.01347 3.94819 0.0 
4.06247 4.08303 0.0 
4.69397 3.97057 0.0 
4.49297 4.15887 0.0 
4.21209 4.09607 0.0 
4.77019 3.9857 0.0 
4.74138 4.04167 0.0 
4.91068 4.00579 0.0 
4.44461 4.07999 0.0 
4.78113 4.03545 0.0 
4.11623 4.05482 0.0 
8.40909 0 0.0 
4.79858 4.05061 0.0 
4.91865 3.99528 0.0 
5.9124 4.25197 0.0 
4.17478 4.06935 0.0 
4.07198 4.07393 0.0 
4.06288 4.03688 0.0 
10.5477 4.08627 0.0 
4.27025 4.04886 0.0 
4.43294 4.08729 0.0 
9.22824 3.89053 0.0 
4.93224 3.99509 0.0 
4.03283 4.06047 0.0 
4.4096 4.07715 0.0 
5.10917 4.01657 0.0 
4.09422 4.06655 0.0 
4.27132 3.93977 0.0 
5.03122 4.01313 0.0 
4.18875 3.93918 0.0 
5.14988 4.00255 0.0 
4.68926 4.04811 0.0 
5.04999 4.12927 0.0 
4.05789 4.06544 0.0 
4.10075 4.03591 0.0 
4.81354 3.97664 0.0 
4.48295 4.0392 0.0 
4.14394 3.94805 0.0 
4.09973 4.06883 0.0 
4.98031 4.02036 0.0 
4.0631 3.94627 0.0 
4.09324 4.07263 0.0 
4.03933 4.02885 0.0 
5.01594 3.97412 0.0 
4.22735 3.91196 0.0 
4.20027 3.96328 0.0 
4.70154 3.98531 0.0 
4.06915 4.04534 0.0 
3.98712 4.04304 0.0 
4.08538 4.02507 0.0 
4.12075 4.05273 0.0 
3.75473 4.26457 0.0 
4.96872 4.01663 0.0 
3.99368 4.01426 0.0 
4.66941 4.07164 0.0 
9.04678 3.65415 0.0 
4.94587 4.02527 0.0 
4.70666 4.03293 0.0 
4.13251 4.05883 0.0 
4.31812 4.07534 0.0 
13.1695 3.28922 0.0 
4.4004 4.127 0.0 
5.00489 4.02516 0.0 
4.32559 4.06742 0.0 
4.48341 4.0268 0.0 
4.09424 4.05815 0.0 
3.99988 3.98708 0.0 
4.06189 3.97209 0.0 
11.1514 2.9259 0.0 
4.95708 3.98506 0.0 
4.8091 3.98906 0.0 
3.99904 4.00172 0.0 
5.41155 3.85481 0.0 
4.08147 3.99499 0.0 
12.5218 3.69706 0.0 
4.25845 4.05531 0.0 
4.95324 3.99777 0.0 
5.8622 0.652372 0.0 
7.59514 2.94404 0.0 
4.37829 4.10947 0.0 
11.5299 3.85821 0.0 
4.76457 4.03188 0.0 
5.03247 3.98293 0.0 
4.17786 4.07881 0.0 
4.50261 4.09978 0.0 
5.04607 4.02448 0.0 
4.1628 3.94775 0.0 
4.57319 3.97909 0.0 
5.09798 4.0273 0.0 
6.11078 5.34609 0.0 
4.08831 4.06631 0.0 
4.31999 3.95194 0.0 
4.00489 3.99798 0.0 
4.4175 4.12976 0.0 
4.01377 4.02116 0.0 
4.50272 3.97453 0.0 
4.67324 4.04123 0.0 
7.24836 3.94354 0.0 
5.01116 4.01057 0.0 
4.27249 3.94427 0.0 
4.43598 4.06711 0.0 
4.52576 4.0968 0.0 
5.0786 4.01053 0.0 
3.97234 4.03785 0.0 
4.17204 3.92436 0.0 
4.53767 3.96959 0.0 
5.00576 3.98835 0.0 
4.10504 4.03885 0.0 
5.57002 5.56602 0.0 
4.96751 4.00808 0.0 
4.98947 4.00894 0.0 
4.2609 4.10923 0.0 
4.30493 4.07262 0.0 
4.99603 3.97729 0.0 
4.68868 3.9826 0.0 
4.0658 4.04426 0.0 
4.63705 4.04055 0.0 
11.7445 4.22598 0.0 
4.05664 3.81012 0.0 
4.95286 4.03879 0.0 
4.98109 4.00398 0.0 
4.0089 3.92893 0.0 
4.70089 4.04733 0.0 
4.53833 4.06171 0.0 
4.24915 4.05618 0.0 
4.35699 4.08049 0.0 
8.7109 4.14105 0.0 
4.34143 4.07065 0.0 
4.00671 4.06674 0.0 
4.31144 4.09213 0.0 
4.9912 4.02804 0.0 
10.9643 4.12053 0.0 
4.02529 4.00274 0.0 
5.07235 3.99531 0.0 
4.10898 4.04008 0.0 
12.3799 3.8677 0.0 
4.98997 4.02393 0.0 
3.99592 4.02432 0.0 
3.95745 3.9636 0.0 
5.01943 4.02273 0.0 
3.96199 4.03038 0.0 
5.04864 4.04382 0.0 
4.1584 4.03851 0.0 
4.71615 4.04564 0.0 
4.76156 4.05785 0.0 
4.18813 4.09432 0.0 
8.74855 7.71704 0.0 
4.68866 4.04679 0.0 
5.03899 4.01992 0.0 
4.07895 4.07661 0.0 
4.25667 4.09902 0.0 
4.65617 4.07572 0.0 
13.1026 3.84936 0.0 
4.36659 4.07585 0.0 
4.42098 3.97122 0.0 
5.05402 4.03163 0.0 
4.6379 4.0787 0.0 
4.41261 3.94923 0.0 
4.16902 3.98151 0.0 
4.02105 4.04639 0.0 
4.11763 4.04808 0.0 
4.25158 3.98522 0.0 
4.48822 4.12583 0.0 
4.41472 4.04958 0.0 
3.85158 4.15847 0.0 
4.14065 4.11348 0.0 
4.213 4.06906 0.0 
4.25593 4.11374 0.0 
5.0636 3.98872 0.0 
4.27473 4.09602 0.0 
4.29601 3.96669 0.0 
3.98273 4.00621 0.0 
4.69056 3.98337 0.0 
4.98107 3.97981 0.0 
4.38533 3.96943 0.0 
5.03571 4.00684 0.0 
4.33291 4.07121 0.0 
4.98218 4.02738 0.0 
4.10872 4.07473 0.0 
4.84101 4.04065 0.0 
4.27406 4.08825 0.0 
3.95046 4.00001 0.0 
4.41292 3.96252 0.0 
4.22383 4.06305 0.0 
3.08171 2.09887 0.0 
8.24877 1.81489 0.0 
5.15771 3.9871 0.0 
4.78138 3.98852 0.0 
4.96561 3.99146 0.0 
7.10688 3.81214 0.0 
3.98742 4.01904 0.0 
4.04456 4.02516 0.0 
3.99745 3.98903 0.0 
4.12639 4.05926 0.0 
8.92501 4.02764 0.0 
4.83026 3.99089 0.0 
4.20307 3.95064 0.0 
4.68724 4.06063 0.0 
4.98463 4.01475 0.0 
4.88474 4.04745 0.0 
4.45097 3.9963 0.0 
5.00134 4.00081 0.0 
3.95773 3.93432 0.0 
4.70316 3.96658 0.0 
10.22 3.02008 0.0 
5.01224 3.97834 0.0 
4.02873 4.02055 0.0 
4.11383 4.20132 0.0 
4.01908 4.00231 0.0 
4.22847 4.07708 0.0 
4.08166 4.0494 0.0 
4.0309 3.97177 0.0 
4.92025 4.02017 0.0 
10.7354 3.59712 0.0 
4.35609 4.0377 0.0 
4.2242 4.06087 0.0 
4.4024 3.88713 0.0 
4.32531 3.95741 0.0 
4.15962 4.04639 0.0 
4.37754 3.97081 0.0 
6.18245 4.21201 0.0 
4.01229 4.05292 0.0 
4.02949 3.97631 0.0 
5.42064 4.0275 0.0 
4.6761 3.93596 0.0 
4.28115 4.08293 0.0 
4.25325 4.08014 0.0 
4.28343 3.96718 0.0 
4.37016 4.09222 0.0 
4.98174 4.03773 0.0 
3.94967 4.05786 0.0 
4.51354 4.04014 0.0 
4.67201 4.0762 0.0 
4.43487 4.06804 0.0 
4.36565 4.10014 0.0 
4.96949 4.00685 0.0 
5.86141 3.89 0.0 
9.29565 2.41158 0.0 
4.00975 4.04675 0.0 
4.48722 4.09715 0.0 
2.67239 0 0.0 
4.85377 3.9916 0.0 
4.08934 3.97077 0.0 
4.50728 4.04977 0.0 
4.25 4.04556 0.0 
4.47865 3.97378 0.0 
4.03695 4.06573 0.0 
4.37694 4.12818 0.0 
4.02088 4.07613 0.0 
4.23233 4.101 0.0 
4.26093 4.08097 0.0 
4.20051 4.07495 0.0 
4.96978 3.99742 0.0 
4.18755 4.11048 0.0 
4.7313 4.04234 0.0 
4.92822 3.96898 0.0 
4.29625 3.95054 0.0 
4.71035 4.02722 0.0 
4.35999 3.9441 0.0 
4.02359 3.94782 0.0 
8.75684 0.585272 0.0 
4.03015 3.95696 0.0 
11.4371 2.11828 0.0 
4.79775 4.03459 0.0 
4.43601 4.04144 0.0 
4.99347 4.02007 0.0 
4.39273 4.07056 0.0 
4.00749 3.97714 0.0 
4.72943 4.01503 0.0 
4.31428 3.95423 0.0 
3.98674 3.91813 0.0 
4.27995 4.04964 0.0 
4.19271 3.95884 0.0 
4.0277 4.00858 0.0 
4.44438 4.05445 0.0 
4.39232 3.95197 0.0 
4.57301 4.05779 0.0 
4.00854 4.04134 0.0 
8.03046 5.83915 0.0 
4.04721 3.95909 0.0 
4.05619 4.041 0.0 
4.51417 4.06383 0.0 
4.35033 3.96183 0.0 
5.00162 3.97999 0.0 
5.02127 3.99687 0.0 
3.91494 4.13773 0.0 
4.34965 4.05444 0.0 
4.13004 3.956 0.0 
11.3017 0 0.0 
4.01731 3.97083 0.0 
4.24632 4.05089 0.0 
3.98298 4.00201 0.0 
4.09154 3.93527 0.0 
6.06429 3.94859 0.0 
4.6559 7.60199 0.0 
4.24196 3.98731 0.0 
4.10803 3.99306 0.0 
3.99294 4.05083 0.0 
4.44131 3.95584 0.0 
3.99835 4.02918 0.0 
4.17307 4.05993 0.0 
4.0538 3.95415 0.0 
4.21713 3.94994 0.0 
5.3262 4.0473 0.0 
5.05532 3.96524 0.0 
3.92236 4.04787 0.0 
4.19551 3.97637 0.0 
3.99623 4.03627 0.0 
4.03277 4.00935 0.0 
4.05133 4.02283 0.0 
4.75653 4.0384 0.0 
4.26518 3.92745 0.0 
4.1755 3.94311 0.0 
4.36691 4.08793 0.0 
4.0781 3.98964 0.0 
4.22361 4.04691 0.0 
4.01979 4.02259 0.0 
4.21428 4.08445 0.0 
5.61751 3.88935 0.0 
4.17782 3.97888 0.0 
4.00652 4.03234 0.0 
6.15537 4.02389 0.0 
4.42014 4.08348 0.0 
4.69283 4.06706 0.0 
4.00427 4.04292 0.0 
3.99624 4.02713 0.0 
4.25085 4.06913 0.0 
4.11241 4.05725 0.0 
4.99643 3.98691 0.0 
3.99047 3.98781 0.0 
1.75542 5.41821 0.0 
4.04839 4.01492 0.0 
4.01683 4.05945 0.0 
4.77254 4.04634 0.0 
4.0582 3.9448 0.0 
5.02679 3.9978 0.0 
4.98996 3.97879 0.0 
5.29766 3.97245 0.0 
5.1341 3.99422 0.0 
4.35904 3.94852 0.0 
4.3994 3.99099 0.0 
4.963 4.01061 0.0 
4.08447 4.04861 0.0 
11.4194 7.77898 0.0 
4.21222 3.95929 0.0 
4.24711 4.08557 0.0 
4.1401 3.98497 0.0 
4.10988 3.95698 0.0 
4.57749 4.07254 0.0 
4.30682 3.95396 0.0 
4.04131 3.99766 0.0 
4.31114 4.07839 0.0 
5.03609 3.98885 0.0 
0.712024 5.21358 0.0 
3.9756 4.08504 0.0 
4.037 4.008 0.0 
4.06005 3.96532 0.0 
4.22873 3.9583 0.0 
4.04847 4.04817 0.0 
4.01118 3.98048 0.0 
4.73201 4.01048 0.0 
4.19216 3.95644 0.0 
4.30464 4.08609 0.0 
3.9514 4.04615 0.0 
4.80927 4.04945 0.0 
4.03373 4.01881 0.0 
4.06425 3.93419 0.0 
4.48233 4.10456 0.0 
4.12424 3.98858 0.0 
4.0241 4.0517 0.0 
4.03402 4.05512 0.0 
4.01068 3.99745 0.0 
4.02872 3.99494 0.0 
4.72285 3.98435 0.0 
4.40413 4.05425 0.0 
4.14534 3.95351 0.0 
2.53633 0.42227 0.0 
5.02756 3.99082 0.0 
4.49023 4.08399 0.0 
4.43461 3.96083 0.0 
4.21846 3.91954 0.0 
4.38343 3.91312 0.0 
3.98656 4.03721 0.0 
4.00757 3.98474 0.0 
4.07021 3.95517 0.0 
5.37884 4.0258 0.0 
12.5548 8 0.0 
4.03867 4.02686 0.0 
6.19688 4.00763 0.0 
4.00032 4.0278 0.0 
4.00429 4.01157 0.0 
4.23438 4.04707 0.0 
4.99566 4.00295 0.0 
4.39635 3.90538 0.0 
4.00518 3.97325 0.0 
5.01982 4.03188 0.0 
4.0224 4.02913 0.0 
4.28512 4.05404 0.0 
3.93575 3.98835 0.0 
4.35429 4.08512 0.0 
4.47868 4.08142 0.0 
4.80553 4.0533 0.0 
4.88654 4.02164 0.0 
5.02955 4.14863 0.0 
4.76024 3.96536 0.0 
5.11372 4.15245 0.0 
4.37666 3.9701 0.0 
4.1316 4.07308 0.0 
4.12603 3.95528 0.0 
4.05163 3.99747 0.0 
4.78457 4.06251 0.0 
4.02131 3.98203 0.0 
4.1933 3.96553 0.0 
4.7133 4.04578 0.0 
4.06987 3.96362 0.0 
3.99891 4.05059 0.0 
4.75698 3.97873 0.0 
3.99154 4.0424 0.0 
4.92226 4.00428 0.0 
4.01671 4.01538 0.0 
4.35147 3.9358 0.0 
4.05033 4.00375 0.0 
4.63958 4.05289 0.0 
3.97422 3.94364 0.0 
4.03734 3.98999 0.0 
4.20672 4.05011 0.0 
3.98689 4.0502 0.0 
5.78035 4.10931 0.0 
4.04817 3.99065 0.0 
3.9746 4.03383 0.0 
4.92406 3.99543 0.0 
4.11939 4.09288 0.0 
0.260039 6.58749 0.0 
4.46741 4.06788 0.0 
3.97063 4.01516 0.0 
3.97752 4.04103 0.0 
4.43771 3.8822 0.0 
4.82678 4.05917 0.0 
3.99979 3.98858 0.0 
4.17675 4.04307 0.0 
4.99249 4.01448 0.0 
4.33458 4.14748 0.0 
4.46102 4.11168 0.0 
0 3.17328 0.0 
4.19928 4.09567 0.0 
4.0784 3.94608 0.0 
5.99106 3.96334 0.0 
5.40558 3.95565 0.0 
5.56217 4.02861 0.0 
4.32438 4.08345 0.0 
4.24867 4.13525 0.0 
3.99069 3.9699 0.0 
4.3461 4.09811 0.0 
3.99271 3.9642 0.0 
4.22618 4.07263 0.0 
3.99956 3.96553 0.0 
4.30667 3.9457 0.0 
4.37258 4.09634 0.0 
4.16486 4.05889 0.0 
4.40181 3.97137 0.0 
4.01563 3.96922 0.0 
4.85353 3.99057 0.0 
4.40345 4.04411 0.0 
8.83615 7.25521 0.0 
[...]
<PointData>
  <DataArray type = "Float64" Name="Vitesse" NumberOfComponents="3" format="ascii">
1 0 0.0 
1.00551 0 0.0 
1.00421 0 0.0 
1 0 0.0 
0.990101 -0.034995 0.0 
0 0 0.0 
0.176387 -0.0110453 0.0 
0.307317 0.00397657 0.0 
0.948697 -0.310863 0.0 
0.992243 0.28521 0.0 
0.145989 0.00643839 0.0 
1.09996 0.0159499 0.0 
0.906869 0.11434 0.0 
0.0239858 0.0016301 0.0 
0.00785345 -0.000855928 0.0 
0 0 0.0 
0.232835 -0.00561722 0.0 
4.17207e-06 -1.91754e-07 0.0 
0.195027 0.0422212 0.0 
1.00895 0 0.0 
0.109115 -0.0114405 0.0 
0.000676505 2.48596e-05 0.0 
1.0091 -0.0143757 0.0 
0.360065 0.0468945 0.0 
0.987037 0.288883 0.0 
0 0 0.0 
0.820492 -0.00360424 0.0 
0 0 0.0 
0.368978 -0.00479323 0.0 
0.839265 0.000861241 0.0 
0.00668412 0.000901794 0.0 
0.901719 0.335503 0.0 
0.176058 -0.00288133 0.0 
0.123031 -0.00570464 0.0 
0.822324 0.208996 0.0 
0.582573 -0.0105723 0.0 
0.0547425 -0.00909716 0.0 
0.729241 -0.0427502 0.0 
0.16007 0.00467294 0.0 
0.0113676 -0.00109165 0.0 
0.884325 -0.0502085 0.0 
0.947196 0.308159 0.0 
0 0 0.0 
0.132847 0.00604088 0.0 
0 0 0.0 
0.636915 -0.0523772 0.0 
0.83926 0.205009 0.0 
0.0449857 -0.00779867 0.0 
1.02105 -0.221194 0.0 
0.937653 0.241997 0.0 
7.95715e-11 2.85911e-11 0.0 
0.244097 0.0257025 0.0 
1.0356 -0.064048 0.0 
0.106774 -0.00131308 0.0 
3.5063e-05 5.1885e-06 0.0 
0.301375 0.0894745 0.0 
0.713393 0.228659 0.0 
0 0 0.0 
0.0613208 0.00620548 0.0 
0.960448 0.0450561 0.0 
0.0258033 -0.00404281 0.0 
0.391218 0.212106 0.0 
0.224427 -0.0166174 0.0 
1.01013 -0.0019438 0.0 
0.0473437 -0.00639815 0.0 
0 0 0.0 
0.233308 0.04812 0.0 
0.164236 0.00532741 0.0 
1.03447 0.0208624 0.0 
1.00241 0.0334831 0.0 
0.0757504 -0.0189104 0.0 
-1.12047e-59 -7.07586e-61 0.0 
0 0 0.0 
0.56376 0.137214 0.0 
0.52062 -0.453532 0.0 
0.140552 -0.0150319 0.0 
1.01281 -0.00344455 0.0 
0.113554 0.006051 0.0 
0.00906787 0.000413451 0.0 
0.0204606 -0.0415432 0.0 
0.97945 0.0223617 0.0 
0 0 0.0 
0.930396 -0.0194652 0.0 
0 0 0.0 
-9.50482e-50 -1.13923e-51 0.0 
1.00899 -0.000409939 0.0 
1.01025 0.000582147 0.0 
0.815385 0.0259026 0.0 
0.860472 0.0118024 0.0 
-1.52102e-222 1.40228e-223 0.0 
0.172602 0.0223 0.0 
0.650407 0.0942593 0.0 
0.574452 -0.0117703 0.0 
0.0941417 -0.0157999 0.0 
0.586509 -0.0381102 0.0 
5.69918e-07 2.60754e-08 0.0 
0.14116 -0.0137467 0.0 
1.01458 -0.00430183 0.0 
0.854064 0.228228 0.0 
0.313027 0.00221484 0.0 
0 0 0.0 
1.0117 0.0280837 0.0 
0.21402 0.147096 0.0 
0.0148192 0.00130229 0.0 
0 0 0.0 
0.727622 0.00273435 0.0 
0.0326033 -0.0128227 0.0 
0.489347 -0.0060595 0.0 
0.0103965 -0.000716448 0.0 
0.524372 -0.014318 0.0 
0.0969445 -0.00180601 0.0 
0.704688 0.148256 0.0 
1.00503 -0.0875119 0.0 
0.0923271 0.00448718 0.0 
0.11165 0.0196831 0.0 
0 0 0.0 
1.01697 -0.0017849 0.0 
0.00256345 -0.00059691 0.0 
0.0147354 -0.0037059 0.0 
0.983685 0.0954108 0.0 
0.106655 0.00326795 0.0 
0.209468 0.0181671 0.0 
0.0169629 0.000914033 0.0 
0.298156 0.0866896 0.0 
0 0 0.0 
0.958966 9.24919e-05 0.0 
1.01941 -0.116028 0.0 
0.122922 -0.0142793 0.0 
3.79868e-05 -7.86408e-06 0.0 
0.952112 -0.244889 0.0 
0.0151241 -0.00139552 0.0 
0.0120712 -0.000334063 0.0 
0 0 0.0 
0.257091 0.00245364 0.0 
0.891204 -0.00301307 0.0 
0.0416744 0.00042821 0.0 
0.841301 0.27127 0.0 
0.580362 0.0298578 0.0 
0.0841662 -0.0152955 0.0 
0.85947 -0.00585812 0.0 
0 0 0.0 
0.126864 0.0110007 0.0 
0 0 0.0 
0.823391 -0.0262281 0.0 
0.064748 -0.0128409 0.0 
0.549913 0.29812 0.0 
0.790531 -0.155123 0.0 
0.0702274 -0.0186656 0.0 
0.706395 0.090674 0.0 
0.202268 -0.0264547 0.0 
0 0 0.0 
0.0156424 -0.00177228 0.0 
0.144607 -0.0137133 0.0 
0.945176 0.139693 0.0 
1.00835 -0.000153487 0.0 
0.000326823 -3.38783e-05 0.0 
0.0742902 -0.0131948 0.0 
0.998146 0.278672 0.0 
0.841747 0.0783149 0.0 
0.26534 -0.01818 0.0 
0.910321 -0.00140873 0.0 
0.152259 -0.000503293 0.0 
0.018924 0.00107418 0.0 
0.130288 -0.0197929 0.0 
0.292701 -0.0187432 0.0 
0.350445 0.00592209 0.0 
0 0 0.0 
0.816167 0.36563 0.0 
0 0 0.0 
0 0 0.0 
0.9322 0.00280899 0.0 
0 0 0.0 
0.925544 0.0642463 0.0 
1.08484 0.204876 0.0 
0.184194 0.0148137 0.0 
1.03567 0.10618 0.0 
0.154813 0.0162489 0.0 
0.740008 0.0583846 0.0 
0.0400315 0.000858402 0.0 
0.478849 -0.0108724 0.0 
0.00990806 0.000925635 0.0 
0.177356 0.01129 0.0 
0.0289844 0.00163869 0.0 
0.0595411 -0.00163635 0.0 
0.0572934 0.000222051 0.0 
0.0763101 -0.0121137 0.0 
0.907003 0.211036 0.0 
0.0678995 -0.00811245 0.0 
0.56467 0.0400341 0.0 
0.721249 -0.0422474 0.0 
0.141808 0.00361835 0.0 
0 0 0.0 
1.00273 -0.00613828 0.0 
1.00989 -2.26428e-05 0.0 
0.224283 0.0146986 0.0 
5.9312e-05 9.18382e-06 0.0 
0.0571464 0.00325242 0.0 
0.982679 0.00190635 0.0 
0.517982 0.174664 0.0 
0 0 0.0 
0.47183 -0.437935 0.0 
0.298553 0.0567616 0.0 
0.730356 -0.00116402 0.0 
0.00114188 0.000103677 0.0 
0.422553 -0.0130394 0.0 
0.117863 -0.0106341 0.0 
0.0278545 -0.00578188 0.0 
0.140909 -0.0148704 0.0 
0 0 0.0 
0.00782686 -0.00258273 0.0 
0.865854 -0.161478 0.0 
0.193865 0.00821458 0.0 
1.01239 -0.0026228 0.0 
0.203906 0.0242141 0.0 
0 0 0.0 
1.03854 0.147137 0.0 
0 0 0.0 
0.386246 0.0352303 0.0 
0.324178 0.0896062 0.0 
0.607892 -0.190036 0.0 
0.0156214 -0.00228794 0.0 
1.01219 -0.00330173 0.0 
0 0 0.0 
3.24976e-196 1.59225e-197 0.0 
1.04697 -0.0220981 0.0 
0.211216 0.00301183 0.0 
0 0 0.0 
0.00770496 0.000499968 0.0 
1.00038 -0.0108682 0.0 
0.814976 0.326051 0.0 
0.350689 -0.103299 0.0 
0.327342 -0.00901838 0.0 
0.546544 0.0148755 0.0 
0.413357 0.0248897 0.0 
0.403666 0.0305729 0.0 
0.0268302 0.000533985 0.0 
0.502273 0.00980029 0.0 
0.133148 -0.0176512 0.0 
0.798569 0.112709 0.0 
0 0 0.0 
0.280252 -0.0195471 0.0 
0.0229905 -0.00196239 0.0 
0.667232 0.019672 0.0 
0.00103997 -0.000136785 0.0 
0.883774 0.0124901 0.0 
1.01085 -0.000991871 0.0 
0.781281 0.339265 0.0 
0.533897 -0.00936787 0.0 
1.00262 0 0.0 
0.00506194 0.00054629 0.0 
0.038129 -0.00470952 0.0 
0 0 0.0 
0 0 0.0 
0.0131887 0.00109887 0.0 
0.921952 0.323266 0.0 
1.0297 0.045206 0.0 
0.893679 0.278265 0.0 
0.932689 0.104771 0.0 
0.407108 0.0288921 0.0 
0.42679 0.0481191 0.0 
0.00477488 0.000207449 0.0 
1.08469 0.16571 0.0 
0.00360441 -0.000248553 0.0 
0.257003 0.0116719 0.0 
0.34707 0.000455323 0.0 
0 0 0.0 
0.444544 0.00247973 0.0 
0.989758 -0.310915 0.0 
1.00907 -5.31637e-05 0.0 
0.99133 -0.322454 0.0 
1.01321 -0.00183585 0.0 
0.00718957 -0.000775418 0.0 
0 0 0.0 
0.0508899 -0.0125909 0.0 
0.0451684 0.000181911 0.0 
0.761673 -0.433044 0.0 
0 0 0.0 
0.270771 0.00231361 0.0 
0.922695 -0.19777 0.0 
0 0 0.0 
0.223753 -0.00446343 0.0 
0 0 0.0 
0 0 0.0 
0.305496 0.00500449 0.0 
0.00114239 -9.89936e-05 0.0 
0.747641 0.354379 0.0 
1.00979 -0.00150649 0.0 
0.884623 -0.223827 0.0 
0.290726 0.0925441 0.0 
0.0191638 -0.00120727 0.0 
0.137101 0.00287321 0.0 
0.186391 0.0201935 0.0 
0.0694342 0.00923718 0.0 
0.906056 0.097045 0.0 
0 0 0.0 
0.443156 -0.036561 0.0 
1.01004 0 0.0 
0.845737 -0.368374 0.0 
0 0 0.0 
0.475426 -0.0737116 0.0 
1.05341 -0.175377 0.0 
0.652463 0.0080802 0.0 
1.00861 0.000768453 0.0 
0 0 0.0 
0 0 0.0 
0.7574 0.25239 0.0 
0.250004 0.00611905 0.0 
0.612232 0.32263 0.0 
8.22482e-06 9.3991e-07 0.0 
0.949804 -0.225076 0.0 
0.419744 -0.0104311 0.0 
0.371744 -0.0207007 0.0 
0.337811 0.0291574 0.0 
0.818004 0.0592909 0.0 
0 0 0.0 
0.675266 0.29372 0.0 
0 0 0.0 
0 0 0.0 
-6.02994e-50 3.72706e-51 0.0 
0.814644 -0.0270344 0.0 
0.672271 -0.0409573 0.0 
0.413792 0.00651135 0.0 
0 0 0.0 
0 0 0.0 
0.0505497 0.0362753 0.0 
0.647051 0.0728186 0.0 
0.89239 0.0175697 0.0 
0 0 0.0 
0.663596 0.372852 0.0 
0.5288 -0.00387382 0.0 
0.29829 -0.00379125 0.0 
0.188024 -0.0155472 0.0 
0.741908 0.328605 0.0 
0.586027 0.302866 0.0 
0.0869199 0.00525164 0.0 
0.338214 0.0666806 0.0 
0.120876 0.0138337 0.0 
0.541303 -0.342157 0.0 
0.999802 0.00330042 0.0 
0 0 0.0 
0.85032 0.316871 0.0 
0.0600919 -0.00668806 0.0 
1.04121 -0.237967 0.0 
0.0726028 0.00811106 0.0 
0.192384 0.0146617 0.0 
0.38034 0.0180415 0.0 
0.176651 0.0119803 0.0 
0.366986 0.00347318 0.0 
0 0 0.0 
0.00647513 -0.00101061 0.0 
0.246121 0.068831 0.0 
1.00717 -0.00010695 0.0 
0.196104 -0.00157649 0.0 
0.568684 0.0492019 0.0 
0 0 0.0 
0.492342 -0.0485623 0.0 
0.177599 -0.0111991 0.0 
0.277079 0.00190089 0.0 
0 0 0.0 
0.247976 0.00872688 0.0 
0.131961 0.0174625 0.0 
0.999909 0.000978785 0.0 
0.849127 0.176172 0.0 
0 0 0.0 
0.513096 -0.0968834 0.0 
0.210734 -0.00194668 0.0 
0.723026 0.260454 0.0 
0.591098 -0.321008 0.0 
0 0 0.0 
0.287501 -0.00730643 0.0 
0.450347 0.0222052 0.0 
0.771542 0.100628 0.0 
0.107395 -0.0113852 0.0 
0 0 0.0 
1.06899 -0.225255 0.0 
0.657618 -0.00644574 0.0 
0 0 0.0 
0.850944 0.354705 0.0 
0.885704 0.346072 0.0 
0 0 0.0 
0 0 0.0 
0.0149968 0.000526436 0.0 
0 0 0.0 
0.471559 -0.0336602 0.0 
1.0023 -0.000825386 0.0 
0.111237 0.0161339 0.0 
0.310136 -0.00998982 0.0 
0.173309 0.00473998 0.0 
0.984361 -0.060172 0.0 
0.889292 -0.0126916 0.0 
0.678138 0.223292 0.0 
0.456351 -0.295386 0.0 
0.813241 -0.151082 0.0 
0.304436 -0.00879997 0.0 
1.00624 0 0.0 
-9.18203e-60 -4.89979e-60 0.0 
0.524965 -0.00061002 0.0 
0.59768 0.342669 0.0 
0.060802 0.0740361 0.0 
0 0 0.0 
0.00443073 -0.00138483 0.0 
0.951976 -0.0144813 0.0 
0.815722 -0.434469 0.0 
0.113491 -0.0226143 0.0 
0.405917 0.207835 0.0 
0 0 0.0 
0.776905 -0.0602485 0.0 
0.362988 0.00624116 0.0 
0.264628 -0.00861109 0.0 
0.134863 -0.0136763 0.0 
0.00513384 -0.000617344 0.0 
0.968017 -0.0488762 0.0 
0.22878 0.00954993 0.0 
0.972351 -0.0468686 0.0 
0.0169293 0.00057716 0.0 
0.744887 0.148264 0.0 
0.481881 -0.0425527 0.0 
0 0 0.0 
0.20279 -0.0182628 0.0 
0.116824 -0.0447888 0.0 
0.0522158 -0.000166652 0.0 
0.0145009 -0.00133069 0.0 
0.493412 -0.0807343 0.0 
0.766697 0.280514 0.0 
0.0872439 0.00367929 0.0 
0.711225 0.254321 0.0 
0 0 0.0 
0 0 0.0 
0.592893 -0.00188189 0.0 
0 0 0.0 
0.0104571 -0.00067744 0.0 
0.85389 -0.206318 0.0 
0 0 0.0 
0 0 0.0 
0.749294 0.225541 0.0 
0.813478 -0.0191198 0.0 
0 0 0.0 
0.680772 0.149109 0.0 
0.00096618 6.0463e-05 0.0 
1.04929 0.230424 0.0 
1.00001 0.000279584 0.0 
0.0405276 -0.00157847 0.0 
0.620884 0.0447235 0.0 
0.709456 0.177512 0.0 
1.05114 -0.0162785 0.0 
0.198725 -0.0188921 0.0 
0.462927 -0.436461 0.0 
0 0 0.0 
0.0318994 -0.00906861 0.0 
1.1227 0.0750697 0.0 
0.776947 0.00196183 0.0 
1 0 0.0 
0.934711 0.128833 0.0 
0.972842 -0.177004 0.0 
0.584615 0.00765322 0.0 
0.522669 0.0193274 0.0 
0.388161 -0.00815308 0.0 
0.356764 0.0114327 0.0 
1.12092 0.123407 0.0 
0.763261 -0.327901 0.0 
0.65281 0.0237389 0.0 
0.808266 -0.320645 0.0 
0.257613 0.0221489 0.0 
0.833231 -0.364042 0.0 
0.437623 -0.00101067 0.0 
0.584909 0.0134586 0.0 
1.36441e-06 1.97202e-07 0.0 
0.0103471 0.000808136 0.0 
0.881877 -0.389933 0.0 
0.0145319 0.00117222 0.0 
0 0 0.0 
1.00845 -0.000400544 0.0 
0 0 0.0 
0.672975 0.0689293 0.0 
0.989162 -0.147434 0.0 
0.81395 -0.093469 0.0 
0.006389 -0.000438023 0.0 
0.872015 -0.399386 0.0 
0.0719317 -0.00932298 0.0 
0.635007 -0.102083 0.0 
0.628448 0.35983 0.0 
0.137265 0.00775478 0.0 
0.964003 -0.0104726 0.0 
0 0 0.0 
0 0 0.0 
0.324093 0.0119061 0.0 
0.29872 0.01653 0.0 
1 0 0.0 
0 0 0.0 
0.0136867 0.000738505 0.0 
0 0 0.0 
0.00608674 0.000381024 0.0 
0 0 0.0 
0.156176 -0.0307636 0.0 
0.949295 0.299686 0.0 
0.802563 0.0376024 0.0 
0.526197 0.0182437 0.0 
0.754604 0.0930453 0.0 
0.632088 0.218389 0.0 
0 0 0.0 
0.595053 0.0126511 0.0 
0.00255689 -0.000280361 0.0 
0 0 0.0 
0.763588 0.0803097 0.0 
0.757231 -0.0975806 0.0 
0.679853 -0.0774364 0.0 
0.993418 0.000523261 0.0 
1.00512 -0.0479488 0.0 
0.00674182 0.00200197 0.0 
0 0 0.0 
0.622952 0.195677 0.0 
1.00744 0.197208 0.0 
0.0263675 -0.00256051 0.0 
0.719964 0.12792 0.0 
0.0139992 0.00068431 0.0 
0.874807 0.337436 0.0 
0.0639922 0.00141507 0.0 
0.774401 0.123812 0.0 
0 0 0.0 
1.06216 -0.0498552 0.0 
0.352178 0.0113535 0.0 
0 0 0.0 
0.93871 0.291297 0.0 
0.678676 0.0614 0.0 
0.602527 0.0165345 0.0 
0.74365 0.110754 0.0 
0.914157 0.330508 0.0 
0.886175 0.322387 0.0 
0.014284 0.00127839 0.0 
0 0 0.0 
0.13632 0.00224485 0.0 
0.877152 0.347566 0.0 
0.0873172 0.00279244 0.0 
0 0 0.0 
0.866545 -0.0952178 0.0 
1.01031 -0.000282732 0.0 
0.0513778 0.00214615 0.0 
0.946102 -0.0456055 0.0 
1.00955 -0.000662408 0.0 
0.459268 -0.00915276 0.0 
0.226571 0.000164233 0.0 
0.000212104 -1.07879e-05 0.0 
0.639046 0.0532012 0.0 
0.335449 -0.0106431 0.0 
0.661422 -0.0512692 0.0 
1.01043 -0.000152645 0.0 
0 0 0.0 
0.635097 0.0049269 0.0 
0.000969338 -0.000180759 0.0 
0.506495 0.0764387 0.0 
0.00909014 -0.00116473 0.0 
1.0014 0.00300137 0.0 
0 0 0.0 
0.105432 0.0045014 0.0 
0.18983 0.00809259 0.0 
1.01043 -0.00557544 0.0 
0.228164 0.011951 0.0 
-4.14599e-56 -1.68673e-56 0.0 
0.282247 0.0223847 0.0 
0.219364 0.00154619 0.0 
1.05905 0.151941 0.0 
0 0 0.0 
0.00571278 0.000662411 0.0 
0.994039 0.059825 0.0 
0.0146886 -0.000299497 0.0 
1.00511 0 0.0 
1.01154 -0.00136439 0.0 
0.353585 -0.00885718 0.0 
1.01191 -0.072365 0.0 
0.00631972 -0.000524972 0.0 
1.01814 0.274556 0.0 
0.418406 0.0232742 0.0 
1.00001 0.000172642 0.0 
0.259922 0.0228351 0.0 
0.0152549 0.00145633 0.0 
0.0259252 -8.56664e-05 0.0 
0.82926 0.0396315 0.0 
0 0 0.0 
0.984433 -0.0467655 0.0 
0.99948 -0.234 0.0 
0.26142 0.0141553 0.0 
0.34375 0.0615044 0.0 
1.00104 0.00321677 0.0 
0.102378 0.0041947 0.0 
1.01243 -0.00281334 0.0 
0.253389 0.0304224 0.0 
0.42738 -0.00204054 0.0 
0 0 0.0 
0.176501 0.000639098 0.0 
0.667971 -0.123067 0.0 
0 0 0.0 
0.230132 0.00375023 0.0 
0.847805 0.339311 0.0 
0.851349 0.0372211 0.0 
0.0308627 0.000712046 0.0 
0.806219 0.0779506 0.0 
0.826606 -0.0470394 0.0 
0.00163086 -0.000278143 0.0 
1.03437 0.137295 0.0 
1.03679 0.0513537 0.0 
0 0 0.0 
0.975689 -0.129158 0.0 
0.757412 -0.0250352 0.0 
0 0 0.0 
0.902673 0.337857 0.0 
1.01022 -0.000236723 0.0 
1.07933 -0.0010732 0.0 
0.0892651 -0.00974218 0.0 
0.276703 -0.00472675 0.0 
0.307091 0.0121379 0.0 
0.283887 0.0154226 0.0 
0 0 0.0 
0.0183529 0.00105682 0.0 
0.95965 0.0806846 0.0 
0.649839 0.0495522 0.0 
0.821146 0.302862 0.0 
0.954511 -0.204545 0.0 
4.24599e-07 1.84064e-07 0.0 
0.630115 0.119436 0.0 
0.538547 -0.001425 0.0 
0 0 0.0 
0 0 0.0 
0.807431 -0.0708218 0.0 
0.0215295 -0.00078527 0.0 
0.664685 0.142327 0.0 
0.0793049 -0.00662961 0.0 
1.00922 3.49905e-05 0.0 
0.256449 0.00554003 0.0 
7.9458e-07 4.69637e-08 0.0 
0 0 0.0 
-1.89452e-224 9.08288e-226 0.0 
0.879443 -0.120045 0.0 
0 0 0.0 
1.01498 0.0121141 0.0 
1.00757 0 0.0 
1.24046e-05 1.21542e-06 0.0 
1.10602 0.0992792 0.0 
0 0 0.0 
0.287522 -0.0140728 0.0 
0.652951 0.303674 0.0 
1.01055 -0.000462862 0.0 
0.633538 0.0765946 0.0 
0.0215833 0.000429431 0.0 
0.540516 -0.0108456 0.0 
0.01852 0.000204521 0.0 
0.890217 -0.207717 0.0 
0.594978 0.000754207 0.0 
0.968407 -0.0470232 0.0 
1.00625 0.267633 0.0 
1.07527 0.144505 0.0 
0.961141 0.287989 0.0 
0.587913 -0.123944 0.0 
0.836226 0.259014 0.0 
0 0 0.0 
0.528367 -0.00376934 0.0 
1.02064 -0.147137 0.0 
0.664467 -0.0656537 0.0 
0.867511 -0.186837 0.0 
1.01483 0.255772 0.0 
0.817329 0.0993569 0.0 
0.0443222 0.00188822 0.0 
1.00895 0 0.0 
0.00924431 0.0004907 0.0 
0.00027216 -2.3643e-05 0.0 
0.556028 -0.0989129 0.0 
0.999156 -0.239353 0.0 
0.705934 -0.0593828 0.0 
-1.12367e-47 -3.92612e-49 0.0 
0.140526 0.00663593 0.0 
0.5378 -0.050673 0.0 
1 0 0.0 
0.083023 0.00934853 0.0 
0.78798 0.261935 0.0 
0.976212 0.0106979 0.0 
4.15636e-06 4.01861e-07 0.0 
1.05077 -0.0123324 0.0 
0.996047 -0.00665399 0.0 
0.934655 -0.32886 0.0 
1.0078 0 0.0 
0.923519 0.256529 0.0 
0.000561512 3.16225e-05 0.0 
0.0783465 -0.00820183 0.0 
0.0104372 0.000650447 0.0 
1.01047 0.000601354 0.0 
0.101485 0.00563063 0.0 
0.882423 -0.20211 0.0 
0.99963 -0.000239614 0.0 
0.00831806 -2.3733e-05 0.0 
0 0 0.0 
0.0046399 -0.000765409 0.0 
1.00912 0 0.0 
0.080169 0.0275059 0.0 
0 0 0.0 
0.733719 0.00458045 0.0 
0.604825 -0.277684 0.0 
0.00037599 4.34164e-05 0.0 
0.654509 -0.0182046 0.0 
0.206874 -0.0113542 0.0 
0.26787 0.0246949 0.0 
0 0 0.0 
1.01164 2.97321e-07 0.0 
0.383132 0.0448589 0.0 
0 0 0.0 
0.139498 -0.00866509 0.0 
1.09809 0.0463502 0.0 
0.320699 -0.000472532 0.0 
0.379357 -0.000738222 0.0 
0 0 0.0 
-3.2539e-220 5.11808e-221 0.0 
0.106942 0.00589821 0.0 
0.182893 0.0105713 0.0 
0.970846 0.164094 0.0 
1.11433e-06 1.28049e-07 0.0 
0 0 0.0 
9.95176e-07 2.47922e-08 0.0 
0.8314 -0.0380165 0.0 
0 0 0.0 
0 0 0.0 
0.898301 0.187665 0.0 
0.0112019 0.000697163 0.0 
1.10757 0.142614 0.0 
0.00652452 -0.000674969 0.0 
0.791802 0.167872 0.0 
0.0125935 0.000789593 0.0 
0.485474 -0.0218552 0.0 
0.400309 0.177255 0.0 
0.377543 -0.0308736 0.0 
0.00181531 -0.000204158 0.0 
0.000914787 -0.000139212 0.0 
0 0 0.0 
0.00540927 -0.000657157 0.0 
0.930832 0.0958149 0.0 
0.607398 -0.0273366 0.0 
0.497689 -0.0405667 0.0 
0.00817568 0.000561164 0.0 
0.975437 -0.0866539 0.0 
0.577115 -0.000370482 0.0 
0 0 0.0 
0.819283 0.0940822 0.0 
0.233749 -0.0116317 0.0 
0.863802 0.0114535 0.0 
1.00035 0.000419798 0.0 
0.9994 -0.00194017 0.0 
0.00653598 -0.00113411 0.0 
1.0673 -0.146452 0.0 
0.0317503 -0.000643827 0.0 
0.0346175 0.00114478 0.0 
0.998046 -0.119011 0.0 
0.0577203 -0.0067828 0.0 
0 0 0.0 
1.07641 0.0506747 0.0 
0.464468 0.069527 0.0 
0.036203 -0.00263423 0.0 
0.427634 -0.0152828 0.0 
1.0061 0.00749156 0.0 
0.00409345 -0.000346181 0.0 
0.901825 0.106602 0.0 
1.06673 -0.0345205 0.0 
1.00811 -0.00032521 0.0 
0.0165092 0.000733062 0.0 
0 0 0.0 
0.862652 -0.134643 0.0 
1 0 0.0 
0 0 0.0 
-3.42662e-253 -2.12279e-254 0.0 
0.127411 -0.00400685 0.0 
0.0572356 0.00290239 0.0 
0.344704 -0.0112457 0.0 
0 0 0.0 
1.01122 -0.00116566 0.0 
0.013761 0.000886132 0.0 
0 0 0.0 
0.815319 -0.0915348 0.0 
0 0 0.0 
0 0 0.0 
0 0 0.0 
0.000735771 3.32549e-05 0.0 
-1.86343e-48 2.32788e-49 0.0 
0.00594965 -0.00022414 0.0 
1.00609 -0.00249724 0.0 
0.999727 0.0240301 0.0 
0.853818 0.275073 0.0 
0 0 0.0 
1.01029 0.242905 0.0 
0.0370937 -0.00508618 0.0 
0.516814 -0.0230964 0.0 
0.379013 0.0272053 0.0 
0 0 0.0 
0.230709 0.00199244 0.0 
0.158768 0.00859147 0.0 
0.539569 0.00811078 0.0 
0.0017185 -0.000241578 0.0 
1.00991 -0.28652 0.0 
0.093078 -0.16197 0.0 
0 0 0.0 
0.372245 -0.00184355 0.0 
1.00847 0.0724036 0.0 
0 0 0.0 
7.78635e-10 6.0806e-10 0.0 
0.0480181 -0.000694197 0.0 
0 0 0.0 
0.75985 0.0555373 0.0 
1.05027 0.21749 0.0 
0.504752 0.0406915 0.0 
0.977158 -0.33934 0.0 
0.259423 0.0440112 0.0 
0.594692 0.00331427 0.0 
0.662117 -0.00119868 0.0 
0 0 0.0 
1.00083 0.00697185 0.0 
0.000100112 5.13279e-06 0.0 
1.00025 0.000631632 0.0 
0.188112 0.0815179 0.0 
0.778188 -0.134802 0.0 
0.700268 0.0165017 0.0 
0.88582 -0.0303443 0.0 
1.0011 0.00237894 0.0 
0.0163721 0.000571414 0.0 
0.0228145 -0.000273307 0.0 
0 0 0.0 
0 0 0.0 
0 0 0.0 
0.969645 0.203155 0.0 
0.336446 -0.0324298 0.0 
1.08984 -0.146092 0.0 
0.880267 0.0966316 0.0 
0.90552 0.0614283 0.0 
0.92124 -0.140147 0.0 
0.427527 0.205692 0.0 
0.0324297 0.00296279 0.0 
0 0 0.0 
1.00978 -0.00145769 0.0 
1.0016 -0.00547371 0.0 
0.209748 0.115462 0.0 
1.01321 -0.00127754 0.0 
0.918698 0.0304158 0.0 
0 0 0.0 
0.446073 0.0482906 0.0 
0.294128 -0.0242278 0.0 
0.304459 -0.00567 0.0 
0 0 0.0 
0.904677 -0.244555 0.0 
-2.22246e-228 1.17374e-229 0.0 
0.999579 -0.000840192 0.0 
0 0 0.0 
0.319637 -0.0216594 0.0 
0.81473 0.014188 0.0 
-1.66733e-48 -9.68828e-50 0.0 
0 0 0.0 
0.274086 -0.0021238 0.0 
0.83098 -0.255694 0.0 
0.0249546 -0.000461529 0.0 
0.0318287 -0.000816708 0.0 
0 0 0.0 
0 0 0.0 
0 0 0.0 
0.93961 -0.0630512 0.0 
0.325286 0.00311675 0.0 
1.00843 0.278981 0.0 
0.0322723 0.001309 0.0 
1.00092 -0.0328412 0.0 
1.00001 5.04388e-05 0.0 
0.901477 0.21166 0.0 
0.922121 -0.33843 0.0 
0 0 0.0 
0.0603598 0.00304302 0.0 
0.473096 0.0479994 0.0 
1.00712 0 0.0 
1.18639e-05 -1.58578e-06 0.0 
0.361043 0.0041082 0.0 
0.317517 -0.00114959 0.0 
0.959027 -0.0171087 0.0 
0.362011 0.144891 0.0 
0.550917 -0.00788561 0.0 
0.92004 0.0487615 0.0 
0.573986 0.0981403 0.0 
0.00627069 -0.000264382 0.0 
0.61796 -0.150977 0.0 
0 0 0.0 
0 0 0.0 
0.933021 -0.366504 0.0 
0.0344814 -0.00188657 0.0 
0.952713 -0.00380064 0.0 
0.383462 0.0365017 0.0 
1.01622 0.00647554 0.0 
1.03218 -0.249129 0.0 
0.974022 -0.227079 0.0 
0.015278 -0.00164799 0.0 
0 0 0.0 
0.365885 -0.0324484 0.0 
0.529626 0.093048 0.0 
0.877826 0.261561 0.0 
0.125284 0.00646881 0.0 
0 0 0.0 
0 0 0.0 
1.0066 0.00260502 0.0 