<VTKFile type="UnstructuredGrid" version="0.1" byte_order="LittleEndian">
  <UnstructuredGrid>
    <Piece NumberOfPoints="13662" NumberOfCells="27171">
      <Points>
        <DataArray type = "Float64" NumberOfComponents="3" format="ascii">
0 0 0.0 
14 0 0.0 
14 8 0.0 
0 8 0.0 
4.99845 3.99768 0.0 
0 2.35318 0.0 
5.15553 4.02606 0.0 
4.76766 3.98034 0.0 
4.01347 3.94819 0.0 
3.98558 4.06175 0.0 
5.09733 4.01619 0.0 
12.8698 3.57746 0.0 
4.03651 4.02751 0.0 
4.5685 4.06882 0.0 
4.04802 3.97378 0.0 
4.69391 3.97057 0.0 
4.44461 4.07999 0.0 
4.42689 3.99682 0.0 
4.11623 4.05482 0.0 
8.40909 0 0.0 
4.79858 4.05061 0.0 
3.9831 3.93993 0.0 
4.00931 3.98845 0.0 
4.83437 4.03993 0.0 
4.02528 4.01889 0.0 
4.06288 4.03688 0.0 
4.91113 4.00572 0.0 
4.73371 3.98588 0.0 
4.16055 3.98981 0.0 
9.22824 3.89053 0.0 
5.32301 4.17012 0.0 
5.91239 4.25196 0.0 
4.4096 4.07715 0.0 
4.27025 4.04886 0.0 
4.09422 4.06655 0.0 
3.9788 4.01158 0.0 
5.03122 4.01313 0.0 
4.18875 3.93918 0.0 
8.51268 1.8402 0.0 
4.4329 4.08727 0.0 
4.17478 4.06935 0.0 
4.05789 4.06544 0.0 
4.10075 4.03591 0.0 
4.81354 3.97664 0.0 
4.48295 4.0392 0.0 
4.14394 3.94805 0.0 
4.09973 4.06883 0.0 
4.98031 4.02036 0.0 
4.0631 3.94627 0.0 
4.09324 4.07263 0.0 
4.53011 3.97512 0.0 
5.01594 3.97412 0.0 
4.22735 3.91196 0.0 
4.20027 3.96328 0.0 
4.21209 4.09607 0.0 
4.06915 4.04534 0.0 
4.19921 3.95761 0.0 
4.08538 4.02507 0.0 
4.6931 4.04681 0.0 
10.5489 4.08689 0.0 
4.96872 4.01663 0.0 
3.99368 4.01426 0.0 
5.10917 4.01657 0.0 
4.68925 4.04811 0.0 
4.94587 4.02527 0.0 
4.70666 4.03293 0.0 
4.13251 4.05883 0.0 
4.31812 4.07534 0.0 
4.66945 4.07163 0.0 
4.4004 4.127 0.0 
5.00489 4.02516 0.0 
4.06247 4.08303 0.0 
4.48341 4.0268 0.0 
4.09424 4.05815 0.0 
3.99988 3.98708 0.0 
13.1661 3.29534 0.0 
4.27133 3.93977 0.0 
4.49297 4.15887 0.0 
4.07198 4.07393 0.0 
4.72702 4.0432 0.0 
5.41155 3.85481 0.0 
4.80748 4.03193 0.0 
12.5218 3.69706 0.0 
4.03283 4.06047 0.0 
4.77033 3.98572 0.0 
7.76923 3.23614 0.0 
7.59514 2.94404 0.0 
4.12145 4.05145 0.0 
4.08147 3.99499 0.0 
4.98161 4.00451 0.0 
4.95708 3.98506 0.0 
4.17786 4.07881 0.0 
4.36279 3.95194 0.0 
5.04607 4.02448 0.0 
4.1628 3.94775 0.0 
7.80349 2.81173 0.0 
5.09798 4.0273 0.0 
3.98712 4.04304 0.0 
4.08831 4.06631 0.0 
4.31999 3.95194 0.0 
4.49162 3.96482 0.0 
4.4175 4.12976 0.0 
5.03246 3.98293 0.0 
5.8622 0.652372 0.0 
4.67324 4.04123 0.0 
4.09788 3.97077 0.0 
5.01116 4.01057 0.0 
3.75473 4.26457 0.0 
4.03933 4.02885 0.0 
4.52576 4.0968 0.0 
5.0786 4.01053 0.0 
3.97234 4.03785 0.0 
4.17204 3.92436 0.0 
4.80349 3.98865 0.0 
5.00576 3.98835 0.0 
4.4198 4.06813 0.0 
3.99904 4.00172 0.0 
4.00489 3.99798 0.0 
5.04999 4.12927 0.0 
4.98947 4.00894 0.0 
11.1598 2.93305 0.0 
0.224418 7.3548 0.0 
4.99603 3.97729 0.0 
7.24888 3.94341 0.0 
4.5026 4.09979 0.0 
4.63705 4.04055 0.0 
4.53666 3.96945 0.0 
4.05664 3.81012 0.0 
4.95286 4.03879 0.0 
4.05174 3.97523 0.0 
4.0089 3.92893 0.0 
11.7471 4.22431 0.0 
4.80288 4.00554 0.0 
4.24915 4.05618 0.0 
4.7965 3.9889 0.0 
4.27249 3.94428 0.0 
4.70134 3.98546 0.0 
4.31202 3.96189 0.0 
4.37829 4.10947 0.0 
4.9912 4.02804 0.0 
4.30494 4.07262 0.0 
8.71089 4.14105 0.0 
5.07235 3.99531 0.0 
4.50272 3.97453 0.0 
4.8856 4.0374 0.0 
4.98997 4.02393 0.0 
4.94738 3.9957 0.0 
4.70068 4.04722 0.0 
5.01943 4.02273 0.0 
3.96199 4.03038 0.0 
5.04864 4.04382 0.0 
4.1584 4.03851 0.0 
4.10504 4.03885 0.0 
4.76156 4.05785 0.0 
4.18813 4.09432 0.0 
4.98395 4.00406 0.0 
10.9639 4.12034 0.0 
5.03899 4.01992 0.0 
5.14988 4.00255 0.0 
4.40379 4.06108 0.0 
4.98122 4.00391 0.0 
4.93247 3.99515 0.0 
4.65737 4.07495 0.0 
4.80881 3.98903 0.0 
4.88057 3.99258 0.0 
5.05402 4.03163 0.0 
4.00671 4.06674 0.0 
4.63487 4.07889 0.0 
4.16902 3.98151 0.0 
4.36639 4.07562 0.0 
4.11763 4.04808 0.0 
4.25158 3.98522 0.0 
4.2609 4.10923 0.0 
4.41472 4.04958 0.0 
4.35682 4.08047 0.0 
4.70088 3.98406 0.0 
4.213 4.06906 0.0 
4.02105 4.04639 0.0 
5.0636 3.98872 0.0 
4.71625 4.04564 0.0 
4.10898 4.04008 0.0 
3.98273 4.00621 0.0 
4.58901 3.89685 0.0 
4.98107 3.97981 0.0 
3.99592 4.02432 0.0 
5.03571 4.00684 0.0 
4.29655 3.96668 0.0 
4.98218 4.02738 0.0 
4.09512 3.96917 0.0 
9.80539 2.41367 0.0 
4.27406 4.08825 0.0 
3.95046 4.00001 0.0 
4.76501 3.98656 0.0 
4.22383 4.06305 0.0 
4.07895 4.07661 0.0 
4.48293 4.06749 0.0 
5.15771 3.9871 0.0 
4.08167 4.04244 0.0 
8.74855 7.71704 0.0 
7.10688 3.81214 0.0 
4.25593 4.11374 0.0 
4.96586 3.99142 0.0 
4.25667 4.09902 0.0 
12.194 4.77529 0.0 
4.02529 4.00274 0.0 
8.92501 4.02764 0.0 
4.48822 4.12583 0.0 
4.60059 4.05678 0.0 
4.12639 4.05926 0.0 
4.98463 4.01475 0.0 
4.88474 4.04745 0.0 
4.45097 3.9963 0.0 
5.00134 4.00081 0.0 
4.69061 4.06058 0.0 
4.27473 4.09602 0.0 
3.98742 4.01904 0.0 
5.01224 3.97834 0.0 
4.02873 4.02055 0.0 
4.84335 4.0404 0.0 
3.99745 3.98903 0.0 
4.33291 4.07121 0.0 
3.08171 2.09887 0.0 
4.6889 3.98248 0.0 
4.96748 4.00806 0.0 
10.7354 3.59712 0.0 
3.95745 3.9636 0.0 
4.34144 4.07064 0.0 
4.4024 3.88713 0.0 
4.32531 3.95741 0.0 
4.0309 3.97177 0.0 
4.14036 4.11338 0.0 
6.18245 4.21201 0.0 
4.84774 3.98991 0.0 
4.02949 3.97631 0.0 
5.42064 4.0275 0.0 
4.70316 3.96658 0.0 
4.28115 4.08293 0.0 
4.25325 4.08014 0.0 
4.12075 4.05273 0.0 
4.10872 4.07473 0.0 
4.98174 4.03773 0.0 
4.28331 3.96716 0.0 
5.57007 5.56593 0.0 
4.67533 3.93738 0.0 
4.3703 4.0918 0.0 
3.85158 4.15847 0.0 
4.41295 3.96251 0.0 
5.86141 3.89 0.0 
4.04456 4.02516 0.0 
4.00975 4.04675 0.0 
4.6702 4.07623 0.0 
2.67239 0 0.0 
4.35615 4.03771 0.0 
4.01229 4.05292 0.0 
4.50728 4.04977 0.0 
4.25 4.04556 0.0 
4.06189 3.97209 0.0 
4.03695 4.06573 0.0 
4.51354 4.04014 0.0 
4.38542 3.96949 0.0 
4.23233 4.101 0.0 
4.26093 4.08097 0.0 
4.20051 4.07495 0.0 
4.08166 4.0494 0.0 
4.18755 4.11048 0.0 
4.22847 4.07708 0.0 
4.37694 4.12818 0.0 
4.29625 3.95054 0.0 
4.71035 4.02722 0.0 
3.94967 4.05786 0.0 
4.2242 4.06087 0.0 
8.75684 0.585272 0.0 
4.15962 4.04639 0.0 
9.04611 3.6554 0.0 
4.79775 4.03459 0.0 
4.48721 4.09715 0.0 
4.99347 4.02007 0.0 
4.20307 3.95064 0.0 
4.00749 3.97714 0.0 
4.4126 3.94923 0.0 
4.42063 3.97115 0.0 
3.95773 3.93432 0.0 
4.27995 4.04964 0.0 
4.36565 4.10014 0.0 
4.0277 4.00858 0.0 
4.44438 4.05445 0.0 
4.65356 3.98269 0.0 
4.92035 4.02017 0.0 
4.00854 4.04134 0.0 
8.03046 5.83915 0.0 
4.43854 4.04123 0.0 
4.47136 3.97301 0.0 
4.31144 4.09213 0.0 
4.36004 3.9441 0.0 
5.00162 3.97999 0.0 
4.02359 3.94782 0.0 
4.10777 4.05262 0.0 
4.03015 3.95696 0.0 
3.98674 3.91813 0.0 
11.4371 2.11828 0.0 
4.01731 3.97083 0.0 
4.24632 4.05089 0.0 
4.92822 3.96898 0.0 
4.09154 3.93527 0.0 
4.0658 4.04426 0.0 
4.6559 7.60199 0.0 
4.24196 3.98731 0.0 
4.10803 3.99306 0.0 
6.11081 5.34602 0.0 
4.44131 3.95584 0.0 
3.99835 4.02918 0.0 
4.04721 3.95909 0.0 
4.43595 4.06712 0.0 
3.91494 4.13773 0.0 
5.3262 4.0473 0.0 
5.05532 3.96524 0.0 
4.7313 4.0423 0.0 
4.19551 3.97637 0.0 
3.99623 4.03627 0.0 
4.03277 4.00935 0.0 
4.05133 4.02283 0.0 
4.10935 3.96801 0.0 
6.06401 3.9486 0.0 
4.1755 3.94311 0.0 
4.36691 4.08793 0.0 
4.0781 3.98964 0.0 
4.22361 4.04691 0.0 
11.3017 0 0.0 
4.34965 4.05444 0.0 
5.61751 3.88935 0.0 
3.98298 4.00201 0.0 
4.70951 3.98431 0.0 
4.00652 4.03234 0.0 
4.05619 4.041 0.0 
4.01908 4.00231 0.0 
4.69283 4.06706 0.0 
4.00427 4.04292 0.0 
10.2226 3.02911 0.0 
4.75648 4.03841 0.0 
4.24929 4.06701 0.0 
4.99643 3.98691 0.0 
3.99047 3.98781 0.0 
4.19269 3.95883 0.0 
4.04839 4.01492 0.0 
4.13004 3.956 0.0 
4.17782 3.97888 0.0 
4.21428 4.08445 0.0 
4.11241 4.05725 0.0 
4.98996 3.97879 0.0 
5.29766 3.97245 0.0 
4.42042 4.08345 0.0 
4.6636 3.98377 0.0 
4.3994 3.99099 0.0 
4.0538 3.95415 0.0 
4.01683 4.05945 0.0 
4.31416 3.95426 0.0 
4.02088 4.07613 0.0 
4.39231 3.95197 0.0 
4.1401 3.98497 0.0 
4.10988 3.95698 0.0 
4.57351 3.97928 0.0 
4.30682 3.95396 0.0 
4.04131 3.99766 0.0 
4.21186 3.95926 0.0 
5.03609 3.98885 0.0 
0.712024 5.21358 0.0 
3.9756 4.08504 0.0 
4.037 4.008 0.0 
4.06005 3.96532 0.0 
4.96305 4.01058 0.0 
4.04847 4.04817 0.0 
4.01118 3.98048 0.0 
3.99624 4.02713 0.0 
4.19216 3.95644 0.0 
4.73041 4.01507 0.0 
5.02127 3.99687 0.0 
3.9514 4.04615 0.0 
4.26519 3.92744 0.0 
4.03373 4.01881 0.0 
4.41918 3.97049 0.0 
4.80836 4.04951 0.0 
5.02679 3.9978 0.0 
4.0241 4.0517 0.0 
4.03402 4.05512 0.0 
4.01068 3.99745 0.0 
4.02872 3.99494 0.0 
3.92236 4.04787 0.0 
4.40413 4.05425 0.0 
4.06425 3.93419 0.0 
4.48233 4.10456 0.0 
5.02756 3.99082 0.0 
4.49023 4.08399 0.0 
4.43461 3.96083 0.0 
4.21846 3.91954 0.0 
4.0582 3.9448 0.0 
3.98656 4.03721 0.0 
4.08447 4.04861 0.0 
4.07021 3.95517 0.0 
4.68003 4.05991 0.0 
3.99294 4.05083 0.0 
1.75542 5.41821 0.0 
11.4194 7.77898 0.0 
4.24711 4.08557 0.0 
2.53633 0.42227 0.0 
4.57749 4.07254 0.0 
4.99566 4.00295 0.0 
4.39635 3.90538 0.0 
4.00518 3.97325 0.0 
5.01982 4.03188 0.0 
4.98898 4.00312 0.0 
4.00757 3.98474 0.0 
12.5548 8 0.0 
4.35429 4.08512 0.0 
4.47868 4.08142 0.0 
4.23438 4.04707 0.0 
4.0224 4.02913 0.0 
4.48053 3.97455 0.0 
4.03867 4.02686 0.0 
5.11372 4.15245 0.0 
4.35969 3.94853 0.0 
4.1316 4.07308 0.0 
4.12603 3.95528 0.0 
4.05163 3.99747 0.0 
4.78457 4.06251 0.0 
4.00032 4.0278 0.0 
4.1933 3.96553 0.0 
4.14531 3.95351 0.0 
4.06987 3.96362 0.0 
3.99891 4.05059 0.0 
4.75698 3.97873 0.0 
3.99154 4.0424 0.0 
4.88669 4.02152 0.0 
4.01671 4.01538 0.0 
4.74162 4.04151 0.0 
4.05033 4.00375 0.0 
5.37884 4.0258 0.0 
4.35047 3.96189 0.0 
4.03734 3.98999 0.0 
4.20672 4.05011 0.0 
3.98689 4.0502 0.0 
4.77242 4.04639 0.0 
4.04817 3.99065 0.0 
3.9746 4.03383 0.0 
6.15528 4.0239 0.0 
4.11939 4.09288 0.0 
4.73264 4.01053 0.0 
4.46741 4.06788 0.0 
4.5146 4.06368 0.0 
3.97752 4.04103 0.0 
4.43771 3.8822 0.0 
4.82678 4.05917 0.0 
3.99979 3.98858 0.0 
4.17675 4.04307 0.0 
4.08934 3.97077 0.0 
4.31114 4.07839 0.0 
4.87334 3.99315 0.0 
0 3.17328 0.0 
4.77915 3.98771 0.0 
4.0784 3.94608 0.0 
4.85411 3.99162 0.0 
4.80521 4.05332 0.0 
4.46102 4.11168 0.0 
5.78032 4.10932 0.0 
4.24867 4.13525 0.0 
3.99069 3.9699 0.0 
6.19679 4.00763 0.0 
3.99271 3.9642 0.0 
5.9907 3.96336 0.0 
3.99956 3.96553 0.0 
4.71314 4.04582 0.0 
4.37258 4.09634 0.0 
4.01979 4.02259 0.0 
4.28512 4.05404 0.0 
[...]
<PointData>
  <DataArray type = "Float64" Name="Vitesse" NumberOfComponents="3" format="ascii">
1 0 0.0 
1.004 0 0.0 
1.00368 0 0.0 
1 0 0.0 
0.0191883 0.00263824 0.0 
1 0 0.0 
0.176356 -0.011078 0.0 
0.0756976 0.00336557 0.0 
0.948679 -0.310867 0.0 
0.794349 0.2138 0.0 
0.1142 -0.00565163 0.0 
1.01823 0.0357055 0.0 
-1.12672e-56 -6.09705e-57 0.0 
0.123696 -0.0082268 0.0 
0.193783 -0.0381388 0.0 
0.145963 0.00648033 0.0 
0.232677 -0.00543588 0.0 
0 0 0.0 
0.195009 0.0422187 0.0 
1.00911 0 0.0 
0.109383 -0.0114678 0.0 
0.875963 -0.225304 0.0 
0 0 0.0 
0.05949 -0.00718011 0.0 
4.00658e-118 2.37982e-118 0.0 
0 0 0.0 
0 0 0.0 
0.00670446 0.000585668 0.0 
0 0 0.0 
0.832633 0.00079599 0.0 
0.9901 -0.0350142 0.0 
1.00902 -0.0144479 0.0 
0.175782 -0.00267758 0.0 
0 0 0.0 
0.822338 0.209009 0.0 
0.54311 0.042161 0.0 
0.0545723 -0.0092846 0.0 
0.729155 -0.0426919 0.0 
1.01019 -0.000350136 0.0 
0.368397 -0.00464181 0.0 
0.360104 0.0468744 0.0 
0.947195 0.308158 0.0 
0 0 0.0 
0.133081 0.00608937 0.0 
0 0 0.0 
0.636867 -0.0523704 0.0 
0.839274 0.205032 0.0 
0.0450523 -0.0077675 0.0 
1.02102 -0.221189 0.0 
0.93767 0.242005 0.0 
0.0216609 0.00133143 0.0 
0.244028 0.025462 0.0 
1.03548 -0.0641876 0.0 
0.107028 -0.00115854 0.0 
0.906868 0.114359 0.0 
0.301388 0.0894793 0.0 
0.249349 -0.00501093 0.0 
0 0 0.0 
0.00517591 -0.000385799 0.0 
0.817698 -0.00625308 0.0 
0.0258446 -0.00401476 0.0 
0.391217 0.21211 0.0 
0.122949 -0.0058104 0.0 
0.0112844 -0.00120014 0.0 
0.0473706 -0.00643777 0.0 
0 0 0.0 
0.233286 0.0481066 0.0 
0.16422 0.00533611 0.0 
0.224404 -0.0166112 0.0 
1.00249 0.0334653 0.0 
0.0758352 -0.0189914 0.0 
0.99224 0.285204 0.0 
0 0 0.0 
0.56377 0.137222 0.0 
0.520601 -0.453519 0.0 
1.01708 0.037782 0.0 
0.58276 -0.0107449 0.0 
1.10003 0.0158602 0.0 
0.987039 0.288881 0.0 
0.0075297 -0.00056344 0.0 
0.978803 0.0222498 0.0 
2.68049e-05 -3.96942e-06 0.0 
0.984476 0.00782979 0.0 
0.901712 0.335495 0.0 
0.0232755 0.000994911 0.0 
1.01017 -0.000105111 0.0 
1.0104 0.000321399 0.0 
5.05464e-10 5.27105e-11 0.0 
0 0 0.0 
0.000697907 -7.93195e-05 0.0 
0.113678 0.00587465 0.0 
0.650395 0.0942628 0.0 
0.306613 0.00413874 0.0 
0.0941012 -0.0159718 0.0 
0.586465 -0.0380951 0.0 
1.01055 4.52104e-05 0.0 
0.141122 -0.0138743 0.0 
0.71339 0.228655 0.0 
0.854078 0.228236 0.0 
0.312716 0.00260858 0.0 
0.135458 0.00499226 0.0 
1.01177 0.028056 0.0 
0.172459 0.022172 0.0 
1.00903 -0.000427688 0.0 
1e-307 1e-307 0.0 
1.36075e-07 -1.43147e-08 0.0 
0.0324529 -0.0130724 0.0 
0.960441 0.0450534 0.0 
1.06363e-10 3.82083e-11 0.0 
0.524447 -0.0144146 0.0 
0.0968111 -0.00194843 0.0 
0.704683 0.148254 0.0 
1.00496 -0.0875015 0.0 
0.0119636 8.1154e-05 0.0 
0.111676 0.0193542 0.0 
0.0131827 -0.000878196 0.0 
0.0204604 -0.0415383 0.0 
0 0 0.0 
0.884261 -0.0502664 0.0 
0.014685 -0.00374669 0.0 
1.01375 -0.00483507 0.0 
1.00002 0.000116276 0.0 
0.209303 0.0178038 0.0 
0.726153 0.00269405 0.0 
0.57457 -0.011862 0.0 
0 0 0.0 
0.0931129 0.00442598 0.0 
1.01939 -0.116041 0.0 
0.123016 -0.0142908 0.0 
0.0677652 -0.0100361 0.0 
0.952096 -0.244893 0.0 
0.9601 -0.0135541 0.0 
0 0 0.0 
0 0 0.0 
0.00707413 0.000908682 0.0 
0.489551 -0.00619446 0.0 
0.000271491 4.01294e-05 0.0 
0.129065 0.00211591 0.0 
0.815519 0.0259363 0.0 
0.0842616 -0.0153095 0.0 
0.106591 0.00326732 0.0 
0.88997 -0.00275144 0.0 
0.126687 0.0108748 0.0 
0.0147771 0.00112163 0.0 
0.0757705 -0.00905532 0.0 
0.0648258 -0.0128479 0.0 
0.00942652 0.00093238 0.0 
0.014613 -0.00152313 0.0 
0.0702275 -0.0188319 0.0 
0.706389 0.0906719 0.0 
0.202389 -0.0265997 0.0 
0 0 0.0 
0 0 0.0 
0.144796 -0.013631 0.0 
0.94526 0.139549 0.0 
0.000549909 -0.000111698 0.0 
0.85132 0.00158386 0.0 
0.0742039 -0.013373 0.0 
0.160009 0.0046513 0.0 
0 0 0.0 
-1.10539e-52 8.40706e-54 0.0 
0.00692794 0.000919411 0.0 
0.256511 -0.0179731 0.0 
0.00952911 0.000467142 0.0 
0.00797929 0.000110532 0.0 
0.130309 -0.0199551 0.0 
0.841297 0.271263 0.0 
0.293766 -0.0186842 0.0 
0 0 0.0 
0.147111 0.00148275 0.0 
0 0 0.0 
0 0 0.0 
0.983644 0.0954249 0.0 
0 0 0.0 
0.256473 0.00283162 0.0 
0.00861501 0.000575605 0.0 
0.184239 0.0148184 0.0 
0.816166 0.365619 0.0 
0.154621 0.0161529 0.0 
0.0159956 -0.00193272 0.0 
0 0 0.0 
0.478843 -0.0108688 0.0 
0.936377 0.00542456 0.0 
0.177186 0.011152 0.0 
0.549913 0.29812 0.0 
0.0593148 -0.00180397 0.0 
0.0399328 0.00179736 0.0 
0.0763899 -0.0121011 0.0 
0.0830155 -0.0067213 0.0 
1.01183 -0.00211698 0.0 
0.564689 0.0400445 0.0 
0.721241 -0.0422486 0.0 
0.0126199 0.0011329 0.0 
0 0 0.0 
0.998151 0.278671 0.0 
0.0451314 -0.00207231 0.0 
0.224219 0.0147062 0.0 
9.25227e-19 2.53409e-19 0.0 
1.00837 -0.000162976 0.0 
0.982382 0.00167089 0.0 
1.03563 0.106191 0.0 
0.0578221 0.00330622 0.0 
0.841736 0.0783316 0.0 
1.0084 -0.00338009 0.0 
0 0 0.0 
0.727516 -0.000819914 0.0 
0.932334 0.00272195 0.0 
0.013011 -0.00135762 0.0 
0.298517 0.0567522 0.0 
0.0279119 -0.00578895 0.0 
0.141291 -0.0148744 0.0 
0 0 0.0 
0.00732549 -0.0033563 0.0 
0.12004 -0.0110455 0.0 
0.740005 0.0584013 0.0 
0.51798 0.174665 0.0 
0.203881 0.0239433 0.0 
0 0 0.0 
0.0679117 -0.00813477 0.0 
0.471814 -0.437923 0.0 
0.0572725 0.000228358 0.0 
1.00273 -0.00614333 0.0 
0.0184664 0.00120016 0.0 
0.00260487 -0.000613259 0.0 
1.01044 -0.000995029 0.0 
0.790519 -0.155124 0.0 
0.0414932 0.000413984 0.0 
1.04682 -0.0221103 0.0 
0.210692 0.00352207 0.0 
0.607864 -0.190054 0.0 
1.08465 0.205155 0.0 
1.00028 -0.0109159 0.0 
0.0190713 0.00146681 0.0 
0.350645 -0.103305 0.0 
0.327613 -0.0089162 0.0 
0.193885 0.00809964 0.0 
0.413374 0.0248929 0.0 
0.403709 0.0305792 0.0 
0.0613124 0.00620354 0.0 
0.907012 0.211098 0.0 
0.133261 -0.0176605 0.0 
0.0254887 0.00073319 0.0 
1.01696 -0.00177834 0.0 
0.529786 0.0148879 0.0 
0.493649 0.00965787 0.0 
0.925537 0.0642424 0.0 
0.141862 0.00345294 0.0 
0.88334 0.0124276 0.0 
0 0 0.0 
0.781281 0.339258 0.0 
0.279585 -0.0195159 0.0 
1.00263 0 0.0 
0 0 0.0 
0.814974 0.326043 0.0 
0 0 0.0 
0 0 0.0 
0.140531 -0.015028 0.0 
0.921945 0.323259 0.0 
0 0 0.0 
0.0285477 0.00129245 0.0 
0.932644 0.104784 0.0 
0.407144 0.0288981 0.0 
0.426842 0.0481309 0.0 
0.324189 0.0896094 0.0 
1.08472 0.165714 0.0 
0.386306 0.0352374 0.0 
1.02979 0.0452274 0.0 
0.346769 0.000687688 0.0 
0 0 0.0 
0.798562 0.112705 0.0 
1.57355e-113 7.70978e-115 0.0 
1.00927 -0.000124204 0.0 
0 0 0.0 
1.01047 -0.00258087 0.0 
0.00702911 -0.000783306 0.0 
0.533994 -0.00942531 0.0 
0.0509485 -0.0126067 0.0 
0.422455 -0.012854 0.0 
0.761648 -0.433034 0.0 
0.350512 0.00583281 0.0 
0.01839 0.000718856 0.0 
0.865841 -0.161482 0.0 
0 0 0.0 
0.667319 0.0198634 0.0 
0 0 0.0 
0 0 0.0 
0.000651366 1.78529e-05 0.0 
0.0156581 -0.00230791 0.0 
0.747642 0.354373 0.0 
1.0098 -0.00150949 0.0 
0 0 0.0 
0.0177716 0.000866669 0.0 
0.58033 0.0298859 0.0 
0.444298 0.00261263 0.0 
0.186334 0.0197819 0.0 
0.98974 -0.31092 0.0 
0.173742 0.037737 0.0 
0.991309 -0.322459 0.0 
0.92268 -0.197775 0.0 
1.01437 -0.000726883 0.0 
0.845704 -0.368371 0.0 
0 0 0.0 
0.256773 0.0116736 0.0 
1.05338 -0.175375 0.0 
0.298171 0.0866952 0.0 
1.00862 0.000770646 0.0 
0 0 0.0 
0 0 0.0 
1.01454 -0.00429587 0.0 
0.249918 0.00637748 0.0 
0.612233 0.322628 0.0 
0.884594 -0.223818 0.0 
0.0100207 -0.000569699 0.0 
0.906049 0.0970405 0.0 
0.371975 -0.0205807 0.0 
0.337648 0.0290321 0.0 
0.00391896 -0.000243305 0.0 
0 0 0.0 
0.675265 0.293717 0.0 
0 0 0.0 
0 0 0.0 
0.0894807 -0.00511633 0.0 
0.651557 0.00805959 0.0 
0.672218 -0.0409251 0.0 
0.414072 0.00695929 0.0 
0 0 0.0 
0 0 0.0 
1.01026 0 0.0 
0 0 0.0 
0.891811 0.0173771 0.0 
0.47542 -0.0737071 0.0 
0.0094326 6.0177e-05 0.0 
0.663599 0.372849 0.0 
0.290748 0.0925562 0.0 
0 0 0.0 
0.188269 -0.0156894 0.0 
0.741908 0.3286 0.0 
1.01282 -0.00318489 0.0 
1.27692e-94 -1.16072e-95 0.0 
0.0264324 0.00202401 0.0 
0.120752 0.013265 0.0 
0.54129 -0.34215 0.0 
0.223933 -0.0043272 0.0 
0 0 0.0 
0.443107 -0.0365545 0.0 
0 0 0.0 
0.647116 0.0728286 0.0 
0.338196 0.0666838 0.0 
0.192168 0.0143747 0.0 
0.380205 0.0181847 0.0 
0.2974 -0.00373588 0.0 
-5.26754e-51 -3.97279e-52 0.0 
0 0 0.0 
0.949774 -0.225068 0.0 
0.850316 0.316863 0.0 
0.270039 0.00263635 0.0 
0.893674 0.278257 0.0 
0.305428 0.00485637 0.0 
0 0 0.0 
0.492302 -0.0485569 0.0 
5.03083e-06 3.40533e-07 0.0 
0.276708 0.00207012 0.0 
0 0 0.0 
0.197242 -0.00140818 0.0 
0.131757 0.0173437 0.0 
0.999909 0.000980172 0.0 
0.849121 0.176167 0.0 
0 0 0.0 
0.513049 -0.0968667 0.0 
0.0065031 -0.00100579 0.0 
0.723033 0.260465 0.0 
0.591071 -0.320995 0.0 
0.586027 0.302865 0.0 
0.287521 -0.00717405 0.0 
0 0 0.0 
0.0691139 0.00910207 0.0 
0.771535 0.100624 0.0 
0.814769 -0.0272368 0.0 
0 0 0.0 
0.0275856 0.000753267 0.0 
0.107485 -0.0114368 0.0 
0.0723127 0.00797486 0.0 
0.85094 0.354695 0.0 
0.885698 0.346064 0.0 
0 0 0.0 
0 0 0.0 
0.817997 0.0592875 0.0 
0 0 0.0 
1.06897 -0.225256 0.0 
0.657767 -0.00650285 0.0 
0.111015 0.0160197 0.0 
0.310135 -0.0100875 0.0 
0.173188 0.00510036 0.0 
0.984191 -0.0602695 0.0 
1.04118 -0.237964 0.0 
0.678136 0.22329 0.0 
0.246129 0.0688333 0.0 
0.813197 -0.15107 0.0 
0.105819 -0.00947087 0.0 
0.757397 0.252385 0.0 
0.999802 0.00330262 0.0 
1.00713 -0.000150792 0.0 
0.568732 0.0492141 0.0 
1.0023 -0.000826172 0.0 
0.17758 -0.0112216 0.0 
0.00448658 -0.00141697 0.0 
0.951849 -0.0144747 0.0 
0.815699 -0.434463 0.0 
0.113586 -0.0227472 0.0 
0.000736104 -8.11259e-05 0.0 
0.456332 -0.295372 0.0 
1.00592 0 0.0 
0.362677 0.00654597 0.0 
0.264463 -0.00847003 0.0 
0 0 0.0 
0.405932 0.207834 0.0 
0.00102658 0.000108944 0.0 
-5.72418e-61 -3.07222e-61 0.0 
0.972356 -0.0469237 0.0 
0.366551 0.0036441 0.0 
0.74485 0.148148 0.0 
0.481841 -0.0425465 0.0 
0 0 0.0 
0.203128 -0.0182234 0.0 
0.597682 0.342669 0.0 
0.052385 -9.34084e-05 0.0 
0.471433 -0.033653 0.0 
0.493369 -0.080723 0.0 
0.766694 0.280509 0.0 
0.0872639 0.00356465 0.0 
0.711223 0.254317 0.0 
0.00431459 -0.000758417 0.0 
0 0 0.0 
0.00751135 -0.000812255 0.0 
0 0 0.0 
0.304656 -0.00865937 0.0 
0.136486 0.00308503 0.0 
0 0 0.0 
0 0 0.0 
0.749291 0.225537 0.0 
0.0607134 -0.00661874 0.0 
0 0 0.0 
0.680768 0.149107 0.0 
0.528745 -0.00392081 0.0 
1.04949 0.230515 0.0 
0 0 0.0 
0.0404825 -0.00163407 0.0 
0.0178128 -0.000991781 0.0 
0.709452 0.177509 0.0 
1.05096 -0.0162975 0.0 
0.199035 -0.0189547 0.0 
0.46291 -0.436448 0.0 
0 0 0.0 
0.038125 -0.00470771 0.0 
0.247943 0.00873517 0.0 
1.22282e-05 2.88997e-07 0.0 
1 0 0.0 
0.00803872 0.000636915 0.0 
0.972804 -0.176997 0.0 
0.00654523 0.000250313 0.0 
0.135125 -0.0137215 0.0 
0.777054 0.00193883 0.0 
0.813665 -0.0191424 0.0 
1.12093 0.123422 0.0 
0.763245 -0.327899 0.0 
0.524703 -0.000659369 0.0 
0.80825 -0.320645 0.0 
0.583772 0.00762113 0.0 
0.833213 -0.364042 0.0 
0.0150369 -0.00135973 0.0 
0.585134 0.0136218 0.0 
0.050552 0.0362763 0.0 
0 0 0.0 
0.881847 -0.38993 0.0 
0.776895 -0.0602507 0.0 
0 0 0.0 
0.934827 0.128846 0.0 
0.620878 0.0447236 0.0 
0.673028 0.0689426 0.0 
1.86358e-08 1.46859e-09 0.0 
0 0 0.0 
0.652746 0.0239094 0.0 
0.871993 -0.399385 0.0 
0.889153 -0.0126699 0.0 
0.634961 -0.102073 0.0 
1.00001 0.000279888 0.0 
0.0319127 -0.00908382 0.0 
0.00720471 0.000591619 0.0 
0 0 0.0 
0.257661 0.0221527 0.0 
0.324046 0.0118581 0.0 
0.176576 0.0119454 0.0 
0.8139 -0.093463 0.0 
0.592707 -0.00173272 0.0 
0.853876 -0.206321 0.0 
0 0 0.0 
0.729683 0.000521327 0.0 
0 0 0.0 
0.0124627 -0.00153333 0.0 
0 0 0.0 
0.356719 0.0114617 0.0 
0.0117075 -0.000233693 0.0 
1.12273 0.0751122 0.0 
0.522254 0.0193584 0.0 
0 0 0.0 
0.000357018 -2.892e-05 0.0 
0.437491 -0.000776682 0.0 
0 0 0.0 
0.763621 0.0803251 0.0 
0.00739635 -0.00092544 0.0 
0.679805 -0.0774301 0.0 
0.628455 0.359828 0.0 
1.00513 -0.0480039 0.0 
0.00549499 0.000947809 0.0 
0 0 0.0 
0.5262 0.0183555 0.0 
0 0 0.0 
0.0261626 -0.00245151 0.0 
0.719959 0.127917 0.0 
1.00846 -0.000430629 0.0 
0.874802 0.337427 0.0 
0.29873 0.0165284 0.0 
0.774395 0.123808 0.0 
0 0 0.0 
0.622971 0.195687 0.0 
0.757221 -0.0975821 0.0 
0 0 0.0 
0.938713 0.291298 0.0 
0.678709 0.0614161 0.0 
0.450325 0.0222187 0.0 
0.743644 0.110751 0.0 
0.914152 0.330504 0.0 
0.886171 0.322386 0.0 
0.0150649 0.000682347 0.0 
0 0 0.0 
2.27096e-05 2.59128e-06 0.0 
0.877146 0.347557 0.0 
0.754694 0.093056 0.0 
0.632086 0.218387 0.0 
0.388513 -0.0082796 0.0 
1.06221 -0.0498869 0.0 
0.0510455 0.00196846 0.0 
0.598724 0.0165073 0.0 
1 0 0.0 
0 0 0.0 
0.594256 0.0124568 0.0 
0.0608023 0.0740366 0.0 
0.639076 0.0532152 0.0 
0.142897 0.00314793 0.0 
0.661414 -0.0512691 0.0 
6.73697e-99 -2.7898e-100 0.0 
0 0 0.0 
0 0 0.0 
0.0901564 0.00265433 0.0 
0.000952281 -0.000152548 0.0 
0.823712 0.00403403 0.0 
1.0014 0.00300344 0.0 
0.50649 0.0764409 0.0 
0.94929 0.29968 0.0 
0.226611 0.00031374 0.0 
0.335458 -0.0105634 0.0 
0.802555 0.0375993 0.0 
0.352564 0.0113151 0.0 
1.00958 -0.000653516 0.0 
1.00743 0.197199 0.0 
1.05903 0.151955 0.0 
0.086933 0.00525057 0.0 
0.866534 -0.0952219 0.0 
0.993416 0.000523881 0.0 
0.282063 0.0220843 0.0 
1.00467 0 0.0 
0.946025 -0.0458103 0.0 
0.353517 -0.00866454 0.0 
1.01178 -0.0723932 0.0 
0 0 0.0 
1.01815 0.27455 0.0 
0.457937 -0.00957931 0.0 
0 0 0.0 
0 0 0.0 
0.00676031 -0.000428487 0.0 
0.994032 0.0598222 0.0 
0.00110227 -0.000185233 0.0 
1.01043 -0.00560045 0.0 
0.984542 -0.0467753 0.0 
0.259977 0.0228418 0.0 
0.261443 0.0141555 0.0 
0.343749 0.0614778 0.0 
1.00104 0.00321893 0.0 
0.989147 -0.147442 0.0 
0 0 0.0 
0.21866 0.00173658 0.0 
0.00810371 -0.000736678 0.0 
0 0 0.0 
-1.57563e-57 -6.35984e-58 0.0 
0.667961 -0.123067 0.0 
0.217944 0.0099752 0.0 
0.228166 0.0119464 0.0 
0.847799 0.339305 0.0 
0.253425 0.0304624 0.0 
0.00899463 -0.00129033 0.0 
0 0 0.0 
0.0139569 0.000689627 0.0 
0.0250004 0.000453877 0.0 
1.03431 0.137273 0.0 
0.418302 0.0233854 0.0 
0 0 0.0 
0.975645 -0.129154 0.0 
0.230073 0.00377016 0.0 
0.826417 -0.0470107 0.0 
0.902667 0.337851 0.0 
0.0719241 -0.00932078 0.0 
1.03679 0.0513529 0.0 
-2.76316e-49 -1.31827e-50 0.0 
0.27645 -0.00455779 0.0 
0.137249 0.00774756 0.0 
0 0 0.0 
0 0 0.0 
1.07936 -0.00118724 0.0 
0.851343 0.0373643 0.0 
0.0888901 -0.00974682 0.0 
0.821143 0.302855 0.0 
0.954477 -0.204536 0.0 
0.307359 0.0121525 0.0 
0.63011 0.119435 0.0 
0.538356 -0.00148026 0.0 
1.01228 -0.0009617 0.0 
0.016407 0.000731295 0.0 
0.807421 -0.0708245 0.0 
0.427038 -0.00200663 0.0 
8.54266e-05 6.67158e-06 0.0 
0.959614 0.080705 0.0 
0.634294 0.00488918 0.0 
0.00118844 -0.000108069 0.0 
0.0151375 -0.000289273 0.0 
0.829252 0.039628 0.0 
0.176481 0.000678704 0.0 
0 0 0.0 
0.0153254 0.00135386 0.0 
1.01489 0.0120895 0.0 
1.0076 0 0.0 
0.256335 0.00555222 0.0 
0.649833 0.0495516 0.0 
0 0 0.0 
0 0 0.0 
0.757652 -0.0253536 0.0 
1.00931 3.32924e-07 0.0 
0.806212 0.0779471 0.0 
0.6336 0.0765839 0.0 
0.0215811 0.000456002 0.0 
0.664651 0.142355 0.0 
0.974276 0.0442799 0.0 
0.0177635 0.000845665 0.0 
0.594473 0.000714446 0.0 
1.01024 -0.000228671 0.0 
1.00626 0.267631 0.0 
1.07527 0.144503 0.0 
0.961144 0.287989 0.0 
0.587866 -0.123923 0.0 
0.836236 0.259019 0.0 
0 0 0.0 
0.0140446 4.80909e-05 0.0 
1.0206 -0.147134 0.0 
0.664419 -0.0656469 0.0 
0.867497 -0.186841 0.0 
1.01486 0.255765 0.0 
0 0 0.0 
0.0439492 0.00205317 0.0 
0.890183 -0.207706 0.0 
0 0 0.0 
0.968398 -0.0470306 0.0 
0.555981 -0.0988989 0.0 
0.0001618 1.47943e-05 0.0 
0.295906 0.00359656 0.0 
0.705883 -0.0593745 0.0 
0.999463 -0.234005 0.0 
0.540466 -0.0113273 0.0 
0.537757 -0.0506671 0.0 
1 0 0.0 
0.082793 0.00873707 0.0 
0.78799 0.261943 0.0 
0.652961 0.30366 0.0 
0.528346 -0.00355668 0.0 
1.05069 -0.012333 0.0 
0.999129 -0.239347 0.0 
0.28748 -0.0140689 0.0 
1.00781 0 0.0 
0.92353 0.256534 0.0 
1.22788e-06 1.76545e-07 0.0 
0.0800364 -0.00660292 0.0 
0.00439055 0.000313922 0.0 
1.01057 0.000483739 0.0 
1.01241 -0.0027935 0.0 
0.976207 0.0106969 0.0 
1.00902 0 0.0 
0.101706 0.00558617 0.0 
0 0 0.0 
0.879431 -0.120049 0.0 
1.00915 0 0.0 
1.10602 0.0993071 0.0 
0 0 0.0 
0.0142453 0.000565763 0.0 
0.934637 -0.328864 0.0 
0.999629 -0.000238353 0.0 
1.00001 0.000172821 0.0 
0.733744 0.00459425 0.0 
0.267745 0.0245839 0.0 
0 0 0.0 
0.655563 -0.0186562 0.0 
0.383174 0.0448787 0.0 
0 0 0.0 
0.139449 -0.00883223 0.0 
0.817394 0.0993685 0.0 
0.996044 -0.00665651 0.0 
0.140565 0.00669551 0.0 
1.0036 -0.000980795 0.0 
0.418276 -0.01015 0.0 
0.107106 0.00575846 0.0 
0.182828 0.0104432 0.0 
0.970735 0.163969 0.0 
1.0107 -0.000443208 0.0 
0 0 0.0 
0.0100395 0.000591299 0.0 
0.831391 -0.0380198 0.0 
0 0 0.0 
0.0226862 -0.00177742 0.0 
0.898443 0.187445 0.0 
0.0731095 0.00354737 0.0 
1.10758 0.142626 0.0 
0.00479644 -0.000808091 0.0 
0.791728 0.167911 0.0 
1.09818 0.046343 0.0 
0.283886 0.0154187 0.0 
0.400331 0.177246 0.0 
0.37751 -0.0308686 0.0 
0.206814 -0.0114744 0.0 
0.320527 -0.000305143 0.0 
0 0 0.0 
0 0 0.0 
0.930796 0.095828 0.0 
0.485447 -0.0218084 0.0 
0.497648 -0.0405601 0.0 
0.000985636 -6.58653e-05 0.0 
0.000102589 -7.81581e-06 0.0 
0.00937768 0.00055712 0.0 
0.379196 -0.000543328 0.0 
0.607252 -0.0272174 0.0 
0.604793 -0.277675 0.0 
0.863863 0.0114445 0.0 
0.975426 -0.0866635 0.0 
0 0 0.0 
1.01168 -6.28281e-05 0.0 
1.06726 -0.146451 0.0 
0.0316597 -0.000605112 0.0 
0.819325 0.0940961 0.0 
0.0943554 -0.00499667 0.0 
1.00035 0.000420259 0.0 
0.882409 -0.202113 0.0 
1.0765 0.0506924 0.0 
0.10538 0.004422 0.0 
0.156146 -0.0307529 0.0 
0.0358299 -0.00289041 0.0 
0.428117 -0.0152951 0.0 
1.00295 0.00727289 0.0 
1.01061 -0.000556598 0.0 
0.901815 0.106614 0.0 
1.06665 -0.0344996 0.0 
0 0 0.0 
0.00128867 -0.000167851 0.0 
0 0 0.0 
0.86264 -0.134647 0.0 
1 0 0.0 
0.00409041 -0.000329506 0.0 
2.11283e-06 9.15894e-07 0.0 
0 0 0.0 
0.0450652 4.22445e-05 0.0 
0.344608 -0.0113824 0.0 
0 0 0.0 
0.974567 -0.00675363 0.0 
1.8631e-07 1.68377e-08 0.0 
0.0595577 -0.00701362 0.0 
0.815309 -0.0915376 0.0 
0 0 0.0 
0 0 0.0 
0 0 0.0 
-1.66048e-170 -1.02867e-171 0.0 
0.00931098 0.000772645 0.0 
0.00558703 -0.000656113 0.0 
0.464539 0.0695463 0.0 
0.999326 0.023967 0.0 
0.127139 -0.00388437 0.0 
0 0 0.0 
0.968071 -0.0489342 0.0 
0.0367825 -0.00532859 0.0 
0.516773 -0.0230218 0.0 
1.01023 0.000365178 0.0 
0 0 0.0 
1.0109 -0.000813979 0.0 
0.15879 0.00842708 0.0 
0.539397 0.00805123 0.0 
0.00473773 0.00024218 0.0 
1.00989 -0.286521 0.0 
0.0930738 -0.161963 0.0 
0 0 0.0 
1.01039 0.24295 0.0 
0.0138759 0.000845818 0.0 
0 0 0.0 
0.379051 0.0272104 0.0 
0.576898 -0.000282522 0.0 
0 0 0.0 
1.0081 -0.000329487 0.0 
0 0 0.0 
0.00570901 0.000674591 0.0 
0.977137 -0.339345 0.0 
0.259428 0.0439952 0.0 
0.59411 0.00327228 0.0 
0.999399 -0.00194 0.0 
0 0 0.0 
0 0 0.0 
1.00556 -0.00316803 0.0 
0.661494 -0.00113015 0.0 
0.504798 0.0407015 0.0 
-1.04629e-50 -5.8227e-52 0.0 
0.700432 0.0164421 0.0 
0.230027 0.00228721 0.0 
1.00111 0.00238068 0.0 
1.00083 0.00697495 0.0 
1.00847 0.0723993 0.0 
0 0 0.0 
1.0502 0.21798 0.0 
0.000203295 1.5369e-05 0.0 
0.969637 0.203147 0.0 
1.01123 -0.00114886 0.0 
0.372318 -0.00178315 0.0 
0.99803 -0.119021 0.0 
0.853825 0.275077 0.0 
0.0308815 0.000704152 0.0 
0.427548 0.205688 0.0 
0.00183608 -0.000208305 0.0 
1.0898 -0.146094 0.0 
0 0 0.0 
4.37397e-05 6.45551e-07 0.0 
0.885934 -0.0303949 0.0 
1.01423 0.000132043 0.0 
0.759843 0.0555347 0.0 
0 0 0.0 
0.446136 0.0483001 0.0 
0 0 0.0 
0.880261 0.0966272 0.0 
0 0 0.0 
0.904652 -0.24455 0.0 
1.00025 0.00063234 0.0 
0.801156 -0.0300422 0.0 
0 0 0.0 
0.778177 -0.134804 0.0 
0.376095 0.0333891 0.0 
0.0207002 -0.000841888 0.0 
0 0 0.0 
0.000173157 1.37038e-05 0.0 
0.830951 -0.255699 0.0 
0.00761543 6.18699e-05 0.0 
0.269505 -0.00238598 0.0 
0.319476 -0.0216515 0.0 
0.0314541 -0.000715388 0.0 
0.0271575 0.00121558 0.0 
1.0016 -0.00547759 0.0 
0.324999 0.00319314 0.0 
1.53449e-06 1.7623e-07 0.0 
0.336416 -0.0324256 0.0 
1.00093 -0.0327631 0.0 
1.00001 5.04902e-05 0.0 
0.080114 0.0274824 0.0 
0.922091 -0.338434 0.0 
0 0 0.0 
0.0640024 0.00141206 0.0 
0.473164 0.0480091 0.0 
0.0159743 0.00123735 0.0 
0.30241 -0.00533882 0.0 
0.000207384 2.8742e-05 0.0 
0.921227 -0.140152 0.0 
0.316889 -0.00135387 0.0 
0 0 0.0 
0 0 0.0 
0 0 0.0 
0.81413 0.0142392 0.0 
0.901471 0.211654 0.0 
0.617929 -0.150962 0.0 
0 0 0.0 
0.905513 0.0614244 0.0 
0.933 -0.366507 0.0 
6.51177e-07 2.68172e-08 0.0 
0.952706 -0.00380405 0.0 
0.383525 0.0365098 0.0 
0.91869 0.0304123 0.0 
1.00843 0.278973 0.0 