<VTKFile type="UnstructuredGrid" version="0.1" byte_order="LittleEndian">
  <UnstructuredGrid>
    <Piece NumberOfPoints="13772" NumberOfCells="27392">
      <Points>
        <DataArray type = "Float64" NumberOfComponents="3" format="ascii">
0 0 0.0 
14 0 0.0 
14 8 0.0 
0 8 0.0 
4.77287 3.98654 0.0 
4.10116 3.97726 0.0 
5.15553 4.02606 0.0 
4.05664 3.97681 0.0 
4.01347 3.94819 0.0 
3.69689 3.78363 0.0 
4.00488 3.99671 0.0 
4.04243 3.97424 0.0 
7.78546 4.24862 0.0 
3.9871 3.98426 0.0 
4.21214 3.96778 0.0 
8.95281 7.51699 0.0 
4.40478 3.97093 0.0 
4.44478 4.07996 0.0 
4.81599 4.03111 0.0 
8.40909 0 0.0 
4.79858 4.05061 0.0 
4.39246 3.8964 0.0 
4.53948 3.9564 0.0 
4.45691 4.07926 0.0 
4.78186 3.98338 0.0 
4.59625 4.08805 0.0 
4.06288 4.03688 0.0 
4.02357 3.98391 0.0 
4.5104 4.08178 0.0 
4.01925 4.05221 0.0 
5.03628 3.9624 0.0 
4.00748 4.00932 0.0 
4.76706 3.98523 0.0 
4.70904 3.98372 0.0 
0 2.35318 0.0 
4.09422 4.06655 0.0 
4.64402 3.95366 0.0 
4.40845 4.077 0.0 
5.03122 4.01313 0.0 
4.18875 3.93918 0.0 
4.51194 4.04817 0.0 
3.99543 4.04517 0.0 
4.00273 4.05728 0.0 
4.37317 4.11564 0.0 
4.05789 4.06544 0.0 
4.10075 4.03591 0.0 
4.81354 3.97664 0.0 
4.69388 3.97056 0.0 
3.98227 4.04617 0.0 
4.09973 4.06883 0.0 
4.98031 4.02036 0.0 
4.0631 3.94627 0.0 
4.09324 4.07263 0.0 
4.48463 4.0392 0.0 
5.01594 3.97412 0.0 
4.22735 3.91196 0.0 
4.48902 4.09196 0.0 
4.15754 4.05943 0.0 
4.06915 4.04534 0.0 
4.63875 4.05067 0.0 
4.08538 4.02507 0.0 
4.0583 3.981 0.0 
4.89354 4.00806 0.0 
4.96872 4.01663 0.0 
3.99368 4.01426 0.0 
4.20054 3.96331 0.0 
3.99336 3.97236 0.0 
4.94587 4.02527 0.0 
4.53742 4.06293 0.0 
4.70666 4.03293 0.0 
3.99439 4.02858 0.0 
4.53006 3.97538 0.0 
4.91339 4.00547 0.0 
4.4004 4.127 0.0 
5.00489 4.02516 0.0 
4.14394 3.94805 0.0 
4.48341 4.0268 0.0 
4.09424 4.05815 0.0 
3.99988 3.98708 0.0 
4.27463 4.13782 0.0 
6.04621 4.0194 0.0 
4.06553 4.039 0.0 
4.0058 3.89174 0.0 
4.63463 4.05515 0.0 
5.41155 3.85481 0.0 
4.31812 4.07534 0.0 
10.5547 3.45901 0.0 
4.92439 4.01407 0.0 
5.91113 4.24977 0.0 
4.94186 3.99471 0.0 
7.59514 2.94404 0.0 
4.83751 4.03756 0.0 
4.34882 3.94164 0.0 
4.51552 4.06453 0.0 
5.09731 4.01618 0.0 
4.16838 4.0885 0.0 
4.24218 3.93274 0.0 
3.8957 4.03142 0.0 
4.17786 4.07881 0.0 
4.06818 4.05086 0.0 
5.04607 4.02448 0.0 
4.1628 3.94775 0.0 
4.63833 3.96699 0.0 
5.09798 4.0273 0.0 
4.96538 4.00831 0.0 
4.08831 4.06631 0.0 
4.31999 3.95194 0.0 
4.76793 3.98076 0.0 
4.4175 4.12976 0.0 
4.69702 3.97973 0.0 
7.66907 7.82694 0.0 
5.38728 4.1792 0.0 
4.29119 4.04831 0.0 
5.01116 4.01057 0.0 
4.95711 3.98506 0.0 
4.11193 3.9679 0.0 
4.52576 4.0968 0.0 
5.0786 4.01053 0.0 
4.02759 4.00199 0.0 
3.97234 4.03785 0.0 
4.17204 3.92436 0.0 
4.95678 3.99741 0.0 
5.00576 3.98835 0.0 
4.98914 4.0035 0.0 
4.10704 4.04463 0.0 
4.20438 4.04613 0.0 
4.24133 4.05308 0.0 
4.98947 4.00894 0.0 
4.17478 4.06935 0.0 
5.92416 4.00383 0.0 
4.99603 3.97729 0.0 
4.23959 4.1146 0.0 
4.4334 3.9636 0.0 
4.2529 4.08701 0.0 
4.40037 3.93618 0.0 
4.08147 3.99499 0.0 
4.05664 3.81012 0.0 
4.95286 4.03879 0.0 
4.03646 3.96999 0.0 
4.0089 3.92893 0.0 
4.43272 4.08721 0.0 
4.13827 4.08787 0.0 
3.89305 4.01486 0.0 
4.24915 4.05618 0.0 
4.19159 3.93008 0.0 
5.05182 3.97633 0.0 
4.69664 3.97789 0.0 
4.26747 4.03967 0.0 
4.63784 4.04043 0.0 
4.9912 4.02804 0.0 
4.57117 4.06876 0.0 
4.97687 4.00578 0.0 
5.07235 3.99531 0.0 
4.68946 4.04799 0.0 
5.03246 3.98293 0.0 
4.98997 4.02393 0.0 
4.26302 4.06941 0.0 
4.17471 4.08708 0.0 
5.01943 4.02273 0.0 
3.96199 4.03038 0.0 
5.04864 4.04382 0.0 
4.1584 4.03851 0.0 
5.10912 4.01655 0.0 
4.76156 4.05785 0.0 
4.18813 4.09432 0.0 
4.88438 4.03747 0.0 
4.47554 4.07408 0.0 
5.03899 4.01992 0.0 
4.82382 4.0309 0.0 
4.03283 4.06047 0.0 
4.98228 4.02308 0.0 
4.78024 4.03669 0.0 
4.65737 4.07495 0.0 
4.4027 4.06153 0.0 
6.11149 3.87346 0.0 
5.05402 4.03163 0.0 
4.29326 4.05425 0.0 
3.9788 4.01158 0.0 
4.16902 3.98151 0.0 
7.24676 3.94181 0.0 
4.11763 4.04808 0.0 
4.25158 3.98522 0.0 
4.12905 3.94147 0.0 
4.41472 4.04958 0.0 
4.10434 4.05119 0.0 
4.66722 4.07181 0.0 
4.213 4.06906 0.0 
5.32287 4.1702 0.0 
5.0636 3.98872 0.0 
12.1659 4.24026 0.0 
4.13251 4.05883 0.0 
3.98273 4.00621 0.0 
5.8622 0.652372 0.0 
4.36756 4.07555 0.0 
4.98107 3.97981 0.0 
4.63451 4.0786 0.0 
5.03571 4.00684 0.0 
3.93483 4.02645 0.0 
3.98712 4.04304 0.0 
4.98218 4.02738 0.0 
4.29004 4.08476 0.0 
4.85974 4.02517 0.0 
4.27406 4.08825 0.0 
3.95046 4.00001 0.0 
5.293 4.04732 0.0 
4.22383 4.06305 0.0 
4.84481 4.02956 0.0 
4.27134 3.93978 0.0 
5.15771 3.9871 0.0 
4.94665 4.01293 0.0 
4.80539 4.00503 0.0 
7.10688 3.81214 0.0 
4.07198 4.07393 0.0 
4.49847 4.06678 0.0 
4.26972 4.04885 0.0 
4.6342 3.98202 0.0 
4.23972 4.07157 0.0 
10.5805 4.09222 0.0 
4.02105 4.04639 0.0 
3.9831 3.93993 0.0 
4.22837 4.06693 0.0 
4.12639 4.05926 0.0 
4.98463 4.01475 0.0 
4.88474 4.04745 0.0 
4.45097 3.9963 0.0 
5.00134 4.00081 0.0 
4.96602 3.99137 0.0 
4.38538 3.97047 0.0 
4.00489 3.99798 0.0 
5.01224 3.97834 0.0 
4.02873 4.02055 0.0 
4.83724 3.99165 0.0 
4.30568 4.07247 0.0 
4.11623 4.05482 0.0 
4.145 4.08513 0.0 
4.84541 4.04049 0.0 
4.98761 3.99688 0.0 
4.13347 3.96923 0.0 
4.77028 3.98572 0.0 
5.00003 4.13175 0.0 
4.93781 4.0129 0.0 
4.30707 4.08024 0.0 
4.40159 3.88603 0.0 
4.21209 4.09607 0.0 
4.61715 3.97136 0.0 
5.16936 4.00112 0.0 
6.18245 4.21201 0.0 
6.32821 3.79595 0.0 
4.02949 3.97631 0.0 
4.71636 4.04556 0.0 
5.41979 4.02725 0.0 
4.28115 4.08293 0.0 
4.25325 4.08014 0.0 
4.08235 4.05331 0.0 
4.50257 4.09981 0.0 
4.98174 4.03773 0.0 
4.41513 4.06882 0.0 
12.2257 4.71735 0.0 
4.06247 4.08303 0.0 
4.3703 4.0918 0.0 
8.06291 2.47538 0.0 
3.98742 4.01904 0.0 
5.86141 3.89 0.0 
3.99745 3.98903 0.0 
4.00975 4.04675 0.0 
4.40442 4.00541 0.0 
2.67239 0 0.0 
4.31982 3.96729 0.0 
4.03901 4.03154 0.0 
4.2725 3.94428 0.0 
4.43949 4.06781 0.0 
4.6903 4.06048 0.0 
4.06045 3.97425 0.0 
4.03695 4.06573 0.0 
4.67014 4.07643 0.0 
4.80857 4.04432 0.0 
4.49297 4.15887 0.0 
4.68606 4.04764 0.0 
4.23233 4.101 0.0 
4.26093 4.08097 0.0 
4.20051 4.07495 0.0 
4.37686 3.97052 0.0 
4.18755 4.11048 0.0 
4.49695 4.05573 0.0 
5.60848 4.01517 0.0 
4.29625 3.95054 0.0 
4.71035 4.02722 0.0 
4.86788 3.99283 0.0 
4.03091 3.97176 0.0 
8.75684 0.585272 0.0 
4.20068 3.9577 0.0 
3.95112 3.95632 0.0 
4.36279 3.95194 0.0 
4.07165 4.04253 0.0 
4.99347 4.02007 0.0 
4.80617 4.03191 0.0 
4.00749 3.97714 0.0 
4.28753 3.96846 0.0 
9.1908 3.93696 0.0 
4.81075 4.03233 0.0 
4.27995 4.04964 0.0 
4.66682 4.06515 0.0 
4.0277 4.00858 0.0 
4.44438 4.05445 0.0 
4.25593 4.11374 0.0 
4.00671 4.06674 0.0 
4.00854 4.04134 0.0 
8.03046 5.83915 0.0 
4.43854 4.04123 0.0 
4.2947 3.96715 0.0 
3.08171 2.09887 0.0 
4.04085 3.91511 0.0 
5.00162 3.97999 0.0 
4.75167 3.98797 0.0 
3.99904 4.00172 0.0 
3.99592 4.02432 0.0 
4.07895 4.07661 0.0 
4.25008 4.04533 0.0 
4.21693 4.06488 0.0 
4.01731 3.97083 0.0 
4.35649 4.0805 0.0 
4.24651 4.05075 0.0 
4.09154 3.93527 0.0 
4.67892 3.93508 0.0 
4.6559 7.60199 0.0 
4.24196 3.98731 0.0 
4.10803 3.99306 0.0 
4.37694 4.12818 0.0 
4.33288 4.07115 0.0 
3.99835 4.02918 0.0 
4.16734 4.05926 0.0 
4.86518 3.99178 0.0 
4.61378 3.98047 0.0 
4.70305 3.96657 0.0 
5.3262 4.0473 0.0 
5.05532 3.96524 0.0 
4.2609 4.10923 0.0 
4.11295 4.05516 0.0 
3.99623 4.03627 0.0 
4.03277 4.00935 0.0 
4.05133 4.02283 0.0 
4.81968 4.03204 0.0 
4.27543 4.06865 0.0 
4.35594 4.03775 0.0 
4.1755 3.94311 0.0 
4.48599 3.96448 0.0 
4.0781 3.98964 0.0 
4.22361 4.04691 0.0 
4.36478 4.08808 0.0 
4.58553 3.97785 0.0 
5.61751 3.88935 0.0 
4.65575 4.05099 0.0 
4.24692 3.97915 0.0 
4.00652 4.03234 0.0 
4.47029 3.97112 0.0 
4.10898 4.04008 0.0 
4.01229 4.05292 0.0 
4.42812 3.97352 0.0 
4.00427 4.04292 0.0 
4.94445 4.01253 0.0 
4.20306 3.95065 0.0 
4.27473 4.09602 0.0 
4.99643 3.98691 0.0 
3.99047 3.98781 0.0 
4.72708 4.04307 0.0 
3.75472 4.26456 0.0 
4.70838 3.98288 0.0 
4.04839 4.01492 0.0 
4.7992 4.04282 0.0 
4.35018 4.07096 0.0 
4.46334 3.97344 0.0 
4.62779 4.04703 0.0 
4.98996 3.97879 0.0 
3.98558 4.06175 0.0 
4.42042 4.08345 0.0 
4.68702 4.06724 0.0 
4.3994 3.99099 0.0 
5.29707 3.97278 0.0 
8.74856 7.71704 0.0 
4.9256 3.99448 0.0 
4.10872 4.07473 0.0 
4.53403 3.96893 0.0 
4.1401 3.98497 0.0 
4.10988 3.95698 0.0 
4.48822 4.12583 0.0 
4.30682 3.95396 0.0 
4.04131 3.99766 0.0 
8.51297 1.84092 0.0 
4.72125 4.04389 0.0 
5.03609 3.98885 0.0 
0.712024 5.21358 0.0 
3.9756 4.08504 0.0 
4.037 4.008 0.0 
4.06005 3.96532 0.0 
3.98674 3.91813 0.0 
5.04999 4.12927 0.0 
4.04847 4.04817 0.0 
4.01118 3.98048 0.0 
4.47647 3.99959 0.0 
4.48717 4.09718 0.0 
4.37829 4.10947 0.0 
4.43256 4.06917 0.0 
3.9514 4.04615 0.0 
4.14812 4.09263 0.0 
4.03373 4.01881 0.0 
4.41491 3.96235 0.0 
4.96312 4.01047 0.0 
4.46575 3.97388 0.0 
4.0241 4.0517 0.0 
4.03402 4.05512 0.0 
4.01068 3.99745 0.0 
4.02872 3.99494 0.0 
8.71801 4.14074 0.0 
4.40413 4.05425 0.0 
4.17782 3.97888 0.0 
3.91494 4.13773 0.0 
5.02756 3.99082 0.0 
4.49023 4.08399 0.0 
4.11241 4.05725 0.0 
4.21846 3.91954 0.0 
6.05566 3.95031 0.0 
3.98656 4.03721 0.0 
3.94967 4.05786 0.0 
4.07021 3.95517 0.0 
4.02359 3.94782 0.0 
4.67856 4.0597 0.0 
4.25667 4.09902 0.0 
4.79997 4.02879 0.0 
4.63618 4.05182 0.0 
4.02154 3.87765 0.0 
4.25894 4.06761 0.0 
4.16055 3.98981 0.0 
4.14036 4.11338 0.0 
4.39635 3.90538 0.0 
4.00518 3.97325 0.0 
5.01982 4.03188 0.0 
4.30941 3.96258 0.0 
4.11593 4.04995 0.0 
4.01683 4.05945 0.0 
4.35429 4.08512 0.0 
4.47868 4.08142 0.0 
11.3017 0 0.0 
4.04456 4.02516 0.0 
4.3292 3.96799 0.0 
4.48201 3.97411 0.0 
5.11372 4.15245 0.0 
4.22847 4.07708 0.0 
4.1316 4.07308 0.0 
4.12603 3.95528 0.0 
4.05163 3.99747 0.0 
4.06425 3.93419 0.0 
4.21428 4.08445 0.0 
3.98298 4.00201 0.0 
4.2242 4.06087 0.0 
4.06987 3.96362 0.0 
3.99891 4.05059 0.0 
4.75698 3.97873 0.0 
3.99154 4.0424 0.0 
4.94109 3.99545 0.0 
4.01671 4.01538 0.0 
4.03934 4.02885 0.0 
4.05033 4.00375 0.0 
4.03015 3.95696 0.0 
4.93016 3.99564 0.0 
4.03734 3.98999 0.0 
4.20672 4.05011 0.0 
3.98689 4.0502 0.0 
4.15962 4.04639 0.0 
4.07164 4.00907 0.0 
4.04817 3.99065 0.0 
3.9746 4.03383 0.0 
4.24711 4.08558 0.0 
[...]
<PointData>
  <DataArray type = "Float64" Name="Vitesse" NumberOfComponents="3" format="ascii">
1 0 0.0 
0.999772 0 0.0 
1.00146 0 0.0 
1 0 0.0 
0.0177727 0.00110714 0.0 
-5.11974e-114 6.30748e-115 0.0 
0.177258 -0.0110946 0.0 
6.66945e-11 -1.44559e-11 0.0 
0.949149 -0.311307 0.0 
0.961478 -0.032325 0.0 
0 0 0.0 
0.238898 -0.0456335 0.0 
0.999134 -0.00310367 0.0 
0.609081 -0.306696 0.0 
0.00028708 -6.08677e-06 0.0 
1.00843 -0.000226366 0.0 
0.0144916 0.00086595 0.0 
0.23395 -0.00553584 0.0 
0.00249633 -0.000164677 0.0 
1.01045 0 0.0 
0.109472 -0.0114277 0.0 
1.0134 -0.0198154 0.0 
0.264036 0.00829348 0.0 
0.22351 -0.00645323 0.0 
0.052159 0.00293819 0.0 
0.403619 -0.0195698 0.0 
0 0 0.0 
0 0 0.0 
0.280425 -0.0111313 0.0 
0.83619 0.345601 0.0 
0.357196 0.029639 0.0 
0 0 0.0 
0.0276161 0.00148743 0.0 
0.015777 0.000689661 0.0 
1 -2.2253e-56 0.0 
0.822211 0.208951 0.0 
0.326045 0.0112787 0.0 
0.174209 -0.00236078 0.0 
0.0549799 -0.00924484 0.0 
0.729377 -0.0430084 0.0 
0 0 0.0 
0.731767 0.272763 0.0 
0.802676 0.280086 0.0 
0.908125 0.0343448 0.0 
0.94674 0.307943 0.0 
0 0 0.0 
0.132639 0.00638038 0.0 
0.146683 0.00614051 0.0 
0.729705 0.203523 0.0 
0.839145 0.204972 0.0 
0.0456355 -0.00782051 0.0 
1.02133 -0.221289 0.0 
0.937417 0.241895 0.0 
0 0 0.0 
0.242718 0.0253795 0.0 
1.03573 -0.0640715 0.0 
0.446758 -0.0102889 0.0 
0.0707331 0.0113043 0.0 
0.301448 0.0894991 0.0 
-4.43153e-88 2.66702e-89 0.0 
0 0 0.0 
-1.42051e-120 1.0039e-121 0.0 
2.27664e-189 -2.57659e-190 0.0 
0.0262923 -0.00400132 0.0 
0.390832 0.211153 0.0 
0.103587 0.0025052 0.0 
0.753403 -0.358662 0.0 
0.0480036 -0.00655087 0.0 
0.0268656 -0.00111329 0.0 
0 0 0.0 
0.602257 0.283175 0.0 
0.0196111 0.000953468 0.0 
-4.10615e-276 2.67128e-277 0.0 
1.00248 0.0331757 0.0 
0.0765834 -0.018997 0.0 
0.636662 -0.0522726 0.0 
0 0 0.0 
0.563789 0.137218 0.0 
0.521132 -0.454307 0.0 
1.12079 0.107046 0.0 
0.501198 -0.00320129 0.0 
2.05844e-16 5.86242e-17 0.0 
0.972384 -0.178862 0.0 
0.025135 -0.00253618 0.0 
0.978176 0.0215558 0.0 
0.164859 0.00365475 0.0 
1.05459 0.00636029 0.0 
0.000242077 -2.08706e-05 0.0 
1.00816 -0.0146764 0.0 
0.0158574 0.00114366 0.0 
1.01208 -0.00185015 0.0 
0.0477606 -0.00591744 0.0 
0.492114 0.00041639 0.0 
0.0289591 -0.00277773 0.0 
0.114676 -0.00565255 0.0 
0.912527 0.151389 0.0 
0.756815 -0.0279232 0.0 
0.840068 0.021077 0.0 
0.650501 0.0942592 0.0 
0.572222 0.171995 0.0 
0.0949033 -0.0159417 0.0 
0.586148 -0.0382844 0.0 
0.164812 0.00703252 0.0 
0.142059 -0.0138766 0.0 
0.00264922 -0.000329731 0.0 
0.853907 0.228163 0.0 
0.312986 0.00221807 0.0 
0.0718668 0.00338683 0.0 
1.01167 0.027895 0.0 
0.0506033 0.00260826 0.0 
1.00907 -0.0001008 0.0 
0.998389 -0.0330619 0.0 
0 0 0.0 
0.0327664 -0.0130303 0.0 
0.113215 0.00599603 0.0 
0.0865485 -0.00485575 0.0 
0.525557 -0.0144241 0.0 
0.0970794 -0.0019377 0.0 
0 0 0.0 
0.704403 0.147595 0.0 
1.00509 -0.0876794 0.0 
8.10495e-05 7.5484e-07 0.0 
0.111112 0.0193377 0.0 
0.00138431 -0.000403273 0.0 
-1.91336e-120 -1.93518e-121 0.0 
0 0 0.0 
0 0 0.0 
0.0149386 -0.00383657 0.0 
0.360274 0.0468644 0.0 
0.469196 -0.000474165 0.0 
0.208231 0.0177146 0.0 
1.06178 0.121114 0.0 
0.132592 0.00413843 0.0 
0.589007 0.0497058 0.0 
0.564312 0.00302225 0.0 
0 0 0.0 
1.0196 -0.116272 0.0 
0.123976 -0.0144231 0.0 
0.601355 -0.166483 0.0 
0.952473 -0.245295 0.0 
0.36874 -0.00398757 0.0 
0.991099 0.197714 0.0 
0.839543 0.000684252 0.0 
0 0 0.0 
0.894837 -0.0616622 0.0 
0.236485 0.024617 0.0 
0.0696127 0.00328563 0.0 
0 0 0.0 
0 0 0.0 
0.0850727 -0.0153605 0.0 
0.125642 -0.00843224 0.0 
0.00136034 -0.000151487 0.0 
0.126203 0.0108641 0.0 
0.0102758 -0.00144558 0.0 
0.1715 0.0221267 0.0 
0.0655207 -0.0128994 0.0 
0.0724319 0.00411872 0.0 
0.864476 0.136146 0.0 
0.0709398 -0.0188038 0.0 
0.706182 0.0900122 0.0 
0.203659 -0.0266089 0.0 
0 0 0.0 
0.123411 -0.00580899 0.0 
0.145428 -0.013724 0.0 
0.945235 0.139475 0.0 
0.075838 -0.00913978 0.0 
0.14304 -0.00546993 0.0 
0.0748517 -0.0133378 0.0 
0.00573947 -0.000806329 0.0 
0.901139 0.335099 0.0 
0.0577722 -0.00984414 0.0 
0.00627834 -0.000605545 0.0 
0.257295 -0.0180067 0.0 
0 0 0.0 
0.917608 0.00696754 0.0 
0.131332 -0.0199389 0.0 
0 0 0.0 
0.54293 0.0412947 0.0 
0 0 0.0 
0.712544 0.00178081 0.0 
0 0 0.0 
0 0 0.0 
0.855179 -0.0932486 0.0 
0 0 0.0 
0.135264 0.0242166 0.0 
0.225793 -0.0168053 0.0 
0.184379 0.0148319 0.0 
0.990044 -0.035191 0.0 
0.153831 0.0161154 0.0 
0.947743 0.0117122 0.0 
0.233343 0.0481157 0.0 
0.478703 -0.0118186 0.0 
1.00932 -0.000538341 0.0 
0.145485 -6.51516e-05 0.0 
0.176312 0.0110893 0.0 
0.290663 -0.0183959 0.0 
0.0594752 -0.00177068 0.0 
0.773507 0.033826 0.0 
0.713013 0.228006 0.0 
0.077175 -0.0121622 0.0 
0.443463 0.0254079 0.0 
0.00294588 -0.000364564 0.0 
0.565096 0.0399815 0.0 
0.721215 -0.0429149 0.0 
0.357225 -0.0195885 0.0 
0 0 0.0 
0.0125661 -0.00173228 0.0 
0.582266 -0.0104154 0.0 
0.222994 0.0145795 0.0 
0.0061957 -0.00108802 0.0 
1e-307 1e-307 0.0 
0.977799 -0.000682831 0.0 
0.986611 0.288679 0.0 
0.047727 -0.00296399 0.0 
0 0 0.0 
1.02559e-45 1.39925e-46 0.0 
0.187252 0.0162945 0.0 
0.772654 -0.0544375 0.0 
0.815607 0.36508 0.0 
0.876272 -0.225811 0.0 
0.0700339 0.00406548 0.0 
0.29858 0.0567614 0.0 
0.0283143 -0.00583311 0.0 
0.142005 -0.0151431 0.0 
0 0 0.0 
0.00733327 -0.00332277 0.0 
0.0579278 0.00312781 0.0 
0.0170486 0.00131527 0.0 
0 0 0.0 
0.202793 0.0238795 0.0 
0 0 0.0 
8.39527e-05 3.53606e-07 0.0 
0.102086 0.0034485 0.0 
0.195057 0.0422269 0.0 
0.935083 0.178463 0.0 
0.0699404 -0.00830498 0.0 
0.0172425 0.000621419 0.0 
6.61782e-05 -1.44967e-06 0.0 
0.0243481 0.000939734 0.0 
0.899809 -0.0495553 0.0 
0.00240928 -0.000370785 0.0 
0.301115 0.0125665 0.0 
1.0504 -0.0224404 0.0 
0.906927 0.114301 0.0 
0.105842 0.00485505 0.0 
0.176793 0.00640344 0.0 
0.999952 -0.0106475 0.0 
0.999896 0.00353278 0.0 
0.350512 -0.103332 0.0 
0.0151164 -0.0014123 0.0 
0.327252 -0.00902972 0.0 
0.413782 0.0248091 0.0 
0.404022 0.030581 0.0 
0.496949 0.13643 0.0 
0.575993 -0.0117794 0.0 
0.134288 -0.0177418 0.0 
0.0275184 -0.000995238 0.0 
1.02544 -0.0153091 0.0 
0.991764 0.284938 0.0 
0.494514 0.00906277 0.0 
1.01239 -0.00225987 0.0 
0.517651 0.173798 0.0 
0.879263 0.0117007 0.0 
0.472174 -0.439019 0.0 
0.780767 0.338664 0.0 
0 0 0.0 
1.00264 0 0.0 
0.0377438 0.000216936 0.0 
0.0671372 0.0241971 0.0 
0.489106 -0.00587982 0.0 
0.0205054 -0.00154124 0.0 
0.119417 -0.0111514 0.0 
7.50357e-05 -1.349e-05 0.0 
0.921392 0.322895 0.0 
0.282819 -0.019895 0.0 
0.0707568 -0.00809593 0.0 
1.0997 0.0157733 0.0 
0.00445466 -0.00018922 0.0 
0.932726 0.104706 0.0 
0.407483 0.02889 0.0 
0.427039 0.0481619 0.0 
0.00814544 0.000310066 0.0 
1.08447 0.165569 0.0 
0 0 0.0 
0.380024 -0.00352506 0.0 
0.346508 0.000514889 0.0 
0 0 0.0 
8.84592e-05 7.33633e-06 0.0 
0.608429 -0.190351 0.0 
1.01093 -0.000354981 0.0 
0.245052 -0.00310048 0.0 
0.81717 -0.143788 0.0 
0.306908 0.00402437 0.0 
0.104851 0.0336985 0.0 
0.0515269 -0.0126483 0.0 
5.26492e-05 -8.21903e-06 0.0 
0.762126 -0.433415 0.0 
0.00974335 0.000490541 0.0 
0.756714 0.00487737 0.0 
0.00504129 -0.000601303 0.0 
0 0 0.0 
0.150413 -0.012254 0.0 
0 0 0.0 
0 0 0.0 
1.03561 0.106045 0.0 
0.84084 0.270765 0.0 
0.747132 0.35375 0.0 
1.00967 -0.00155269 0.0 
0 0 0.0 
0.0334948 0.00211186 0.0 
1.00275 -0.0062075 0.0 
1.02325 -0.218965 0.0 
0.185377 0.0197103 0.0 
1.87743e-46 1.58541e-47 0.0 
0.0204008 -0.0420091 0.0 
0.54946 0.297319 0.0 
0.997743 0.278481 0.0 
0 0 0.0 
0.0375145 0.000948416 0.0 
0.846054 -0.368648 0.0 
0.259331 0.00278265 0.0 
0 0 0.0 
1.05364 -0.175469 0.0 
0.556984 0.0149578 0.0 
1.00865 0.000781589 0.0 
0 0 0.0 
0 0 0.0 
1.02982 0.0448781 0.0 
0.0573488 0.00013446 0.0 
0.611762 0.321888 0.0 
9.75101e-06 1.46709e-06 0.0 
0.00821973 0.00033199 0.0 
0.00154675 0.000180638 0.0 
0.194178 0.00803985 0.0 
0.373607 -0.0207213 0.0 
0.335766 0.0289042 0.0 
0.983723 0.0952957 0.0 
0.240314 0.0446377 0.0 
0.674821 0.293024 0.0 
0 0 0.0 
0 0 0.0 
0.00865367 -0.000979634 0.0 
0.0326502 0.00225115 0.0 
0 0 0.0 
0.67208 -0.0413285 0.0 
0.138427 0.00532179 0.0 
0 0 0.0 
0 0 0.0 
0.420111 0.0067771 0.0 
0.0176972 0.00102562 0.0 
0.888842 0.0167489 0.0 
0.00736973 -0.000245346 0.0 
0 0 0.0 
0.663105 0.372203 0.0 
0.0429712 0.000723402 0.0 
0 0 0.0 
0.814457 0.32549 0.0 
7.66452e-47 4.28732e-48 0.0 
0.74142 0.32797 0.0 
0.00443263 -0.000917377 0.0 
0.422353 -0.0125236 0.0 
0.740359 0.0583144 0.0 
0.120172 0.0131864 0.0 
0.541564 -0.343221 0.0 
0.00629883 -0.000575321 0.0 
0.960303 0.0448188 0.0 
0.0236568 0.00114775 0.0 
0 0 0.0 
0.0547477 -0.0063107 0.0 
0.0471128 0.00162717 0.0 
0.010088 0.000634461 0.0 
9.00819e-138 -9.79321e-139 0.0 
0.191186 0.0142969 0.0 
0.79398 0.213251 0.0 
0.29832 -0.00318963 0.0 
0.187039 -0.0154311 0.0 
0 0 0.0 
0.375369 0.0178715 0.0 
1.00853 -0.00012402 0.0 
0.0112292 0.000417359 0.0 
0.90684 0.211018 0.0 
0.0989061 0.00366916 0.0 
0 0 0.0 
0.492266 -0.0485598 0.0 
0.932744 0.00272785 0.0 
0.277154 0.0015423 0.0 
0 0 0.0 
1.01228 -0.00174002 0.0 
0.00743057 -0.000934164 0.0 
0.131086 0.0173237 0.0 
0.999908 0.00098015 0.0 
0.848791 0.175697 0.0 
0 0 0.0 
0.512983 -0.0967584 0.0 
0.922969 -0.198198 0.0 
0.884969 -0.0504501 0.0 
0.722842 0.260453 0.0 
0.591211 -0.321042 0.0 
0 0 0.0 
0.535619 -0.00934179 0.0 
0.81606 0.0255292 0.0 
0.0400449 1.46305e-05 0.0 
0.771321 0.100052 0.0 
1.01709 0.192349 0.0 
0 0 0.0 
0.144642 0.00443059 0.0 
0.00650523 -0.000958066 0.0 
0.00741446 0.000638012 0.0 
0.850358 0.354199 0.0 
0.885116 0.345689 0.0 
0 0 0.0 
0 0 0.0 
0.889427 -0.00664731 0.0 
0 0 0.0 
0 0 0.0 
0.905837 0.0966759 0.0 
0.110476 0.0160113 0.0 
0.311245 -0.00998569 0.0 
0.338256 0.0666906 0.0 
0.984479 -0.0601889 0.0 
0.636953 0.00762579 0.0 
0.677765 0.222601 0.0 
0.79833 0.112171 0.0 
0.81318 -0.151018 0.0 
0.990232 -0.311301 0.0 
0.10326 -0.00910467 0.0 
0.841971 0.0782542 0.0 
3.10685e-135 -1.35101e-136 0.0 
0.000333478 -1.15634e-05 0.0 
0.995501 -0.167054 0.0 
0.0289156 0.00441197 0.0 
0 0 0.0 
1.08428 0.204979 0.0 
0.951801 -0.0142966 0.0 
0.816272 -0.435027 0.0 
0.114548 -0.0227381 0.0 
0.11731 0.0015776 0.0 
3.92485e-15 3.97007e-16 0.0 
0.849792 0.316362 0.0 
0.364292 0.00678759 0.0 
0.265696 -0.00857836 0.0 
1.00721 0 0.0 
0 0 0.0 
0.0295256 0.000889301 0.0 
0.0089542 0.000594571 0.0 
0.972565 -0.047095 0.0 
0.386538 0.0352489 0.0 
0.744812 0.148117 0.0 
0.481835 -0.0424449 0.0 
0 0 0.0 
1.06936 -0.225433 0.0 
0.647301 0.072823 0.0 
0.475346 -0.0746829 0.0 
1.86339e-59 2.84002e-60 0.0 
0.493225 -0.0805612 0.0 
0.766249 0.279914 0.0 
0.0873857 0.00399237 0.0 
0.710816 0.253664 0.0 
0.0080046 0.000211313 0.0 
0 0 0.0 
1.02755e-57 5.64835e-58 0.0 
0 0 0.0 
0.991777 -0.322765 0.0 
0.000871358 4.39933e-05 0.0 
0 0 0.0 
0 0 0.0 
0.748914 0.224932 0.0 
0 0 0.0 
0 0 0.0 
0 0 0.0 
0.680485 0.148419 0.0 
0.569127 0.0492113 0.0 
1.04915 0.230344 0.0 
0 0 0.0 
1.00985 0.0117071 0.0 
3.60895e-05 -6.11766e-06 0.0 
0.709136 0.176857 0.0 
0 0 0.0 
0.199757 -0.019183 0.0 
0.46336 -0.43726 0.0 
0 0 0.0 
1.04538 0.00610433 0.0 
0 0 0.0 
0.659098 -0.00641731 0.0 
1 0 0.0 
5.46057e-06 2.18868e-06 0.0 
0.972963 -0.17705 0.0 
0.349447 0.00605205 0.0 
0.182988 0.0048916 0.0 
0.884816 -0.223905 0.0 
0.442822 -0.0363876 0.0 
1.12067 0.12322 0.0 
0.76366 -0.328626 0.0 
0.405963 0.207673 0.0 
0.808674 -0.321297 0.0 
0.194615 -0.00251052 0.0 
0.833713 -0.364667 0.0 
1.06611 -0.0370949 0.0 
0.585968 0.0131327 0.0 
0 0 0.0 
0.0205317 0.00160075 0.0 
-2.55499e-225 6.11219e-227 0.0 
0.882286 -0.390282 0.0 
5.41638e-06 8.24032e-07 0.0 
0 0 0.0 
0.0435276 -0.00432701 0.0 
0.324239 0.0896212 0.0 
0.673269 0.0689265 0.0 
0.06468 -0.0077268 0.0 
0.134695 0.00314569 0.0 
0 0 0.0 
0.872542 -0.39993 0.0 
0.668221 0.0194994 0.0 
0.110923 -0.00432842 0.0 
0.634821 -0.102021 0.0 
0.00643072 0.000441515 0.0 
3.42517e-06 4.14313e-07 0.0 
0.195768 -0.0517116 0.0 
0 0 0.0 
0.456416 -0.295274 0.0 
0.323798 0.0115664 0.0 
0.120205 -0.0101896 0.0 
1.00367 0 0.0 
0.779233 0.00207863 0.0 
0.000127335 8.89075e-06 0.0 
0 0 0.0 
0.950068 -0.225159 0.0 
0 0 0.0 
1.05446 -0.0183734 0.0 
0 0 0.0 
0.00849174 -0.00108106 0.0 
1.14009e-62 4.55758e-63 0.0 
0.0142309 -0.00206603 0.0 
1.01222 -0.0027727 0.0 
0 0 0.0 
0.0434503 -0.00115914 0.0 
1.39717e-57 6.40044e-58 0.0 
0.0116923 -0.00100561 0.0 
0.93483 0.128782 0.0 
0 0 0.0 
0.763833 0.080292 0.0 
0.585572 0.302095 0.0 
1.04156 -0.23811 0.0 
0.679789 -0.0774291 0.0 
0.135274 -0.0136998 0.0 
0 0 0.0 
1.00511 -0.0481847 0.0 
0.00549063 0.000973792 0.0 
0 0 0.0 
0.0110655 0.000770194 0.0 
0 0 0.0 
0.597195 0.341936 0.0 
0.719705 0.127277 0.0 
0.0199375 0.00119302 0.0 
0.874233 0.336968 0.0 
1.00231 -0.000833841 0.0 
0.774148 0.12324 0.0 
0 0 0.0 
0.0413873 0.000548666 0.0 
0.0939336 -0.00820887 0.0 
0.44456 0.00246103 0.0 
0.93833 0.291132 0.0 
0.0158663 -0.00223663 0.0 
0.679035 0.0613886 0.0 
0.743415 0.110141 0.0 
0.913623 0.330229 0.0 
0.885701 0.322172 0.0 
0.813929 -0.0934343 0.0 
1.08606e-46 -1.28677e-47 0.0 
0.242019 0.00638095 0.0 
0.876559 0.347119 0.0 
0.107631 -0.011457 0.0 
0.0249688 0.00177427 0.0 
0.0344661 0.00187707 0.0 
1.00578 -0.000371862 0.0 
0.565822 0.00703067 0.0 
0.0510253 0.00199839 0.0 
0.992761 0.00798205 0.0 
0.0229486 0.000962872 0.0 
0.269534 0.00227788 0.0 
0 0 0.0 
1.05855 0.00139315 0.0 
0.639418 0.0531803 0.0 
0.816241 -0.0192288 0.0 
0.661382 -0.0520196 0.0 
0.526953 0.0183848 0.0 
0 0 0.0 
0 0 0.0 
0.290856 0.0926115 0.0 
0.653468 0.0238461 0.0 
0.00460059 -0.0013159 0.0 
1.0014 0.00300682 0.0 
0.182274 0.00307548 0.0 
0.0130787 0.00111458 0.0 
0.118799 0.019277 0.0 
0.0721053 0.0079919 0.0 
0.622944 0.195697 0.0 
0.145742 0.033893 0.0 
0.246175 0.0688444 0.0 
0.866045 -0.161973 0.0 
1.05885 0.151833 0.0 
0.25534 0.0115258 0.0 
0.757286 -0.0982119 0.0 
0.366864 0.00345532 0.0 
0.463277 -0.0332907 0.0 
1.00215 0 0.0 
0.298239 0.0867185 0.0 
0.352956 -0.00822527 0.0 
1.01209 -0.0724355 0.0 
0.221566 -0.00566771 0.0 
1.01771 0.274336 0.0 
0.0208689 0.00194121 0.0 
0.725924 -0.0073982 0.0 
0 0 0.0 
0.620956 0.0165109 0.0 
0.116653 -0.0052989 0.0 
0.0280431 0.000959482 0.0 
0.3048 -0.00879828 0.0 
0.98473 -0.0470151 0.0 
0.303915 0.00503082 0.0 
0.261744 0.0141433 0.0 
0.34383 0.0614802 0.0 
1.00103 0.00322123 0.0 
0.506265 0.0755441 0.0 
0 0 0.0 
0.814492 -0.0269656 0.0 
0.144938 0.00297862 0.0 
0 0 0.0 
0.790681 -0.155728 0.0 
0.66803 -0.123835 0.0 
1.04417 -0.0398329 0.0 
0.000797966 0.000104671 0.0 
0.353503 0.0113676 0.0 
0.84726 0.339008 0.0 
0 0 0.0 
0 0 0.0 
0.620713 0.0439479 0.0 
1.06193 -0.0499686 0.0 
0.280623 0.0219694 0.0 
1.0342 0.137166 0.0 
0.999797 0.00329966 0.0 
0 0 0.0 
0.975781 -0.129173 0.0 
0 0 0.0 
0.0291778 0.00199895 0.0 
0.257847 0.0221667 0.0 
0.902108 0.33753 0.0 
0 0 0.0 
1.00002 0.000116493 0.0 
0.993838 0.0596324 0.0 
0.277805 -0.00360596 0.0 
0.00615081 -0.00073135 0.0 
0 0 0.0 
0 0 0.0 
0.0688824 0.00911797 0.0 
0.260154 0.0228578 0.0 
0.0396872 0.00737334 0.0 
0.820653 0.302318 0.0 
0.954695 -0.204565 0.0 
0.226382 0.000150337 0.0 
0.629858 0.118684 0.0 
0.535792 -0.00174617 0.0 
0.776913 -0.0608394 0.0 
0.298961 0.0164472 0.0 
0.807462 -0.0713691 0.0 
0.00132582 -0.000157533 0.0 
0.253559 0.0305094 0.0 
0 0 0.0 
0.76742 -0.0214739 0.0 
0.628083 0.359353 0.0 
1.00001 0.000280368 0.0 
0.631721 0.217648 0.0 
0.0424107 0.00638078 0.0 
0 0 0.0 
0.306595 0.0120637 0.0 
0.230163 0.00350455 0.0 
1.00737 0 0.0 
0.178557 -0.0112942 0.0 
0.826624 -0.0470848 0.0 
0 0 0.0 
0.925377 0.0639225 0.0 
0.754833 0.0930361 0.0 
1.03655 0.051219 0.0 
0.00874738 -0.000975454 0.0 
0 0 0.0 
0.633775 0.0765868 0.0 
0.588704 0.0120769 0.0 
0.0121303 -0.00109667 0.0 
1.05934e-188 -5.59798e-190 0.0 
1.00853 -0.000356274 0.0 
0.588107 5.16621e-05 0.0 
1.01145 0.0119485 0.0 
1.00588 0.267457 0.0 
1.07508 0.144369 0.0 
0.960751 0.287813 0.0 
0.587828 -0.123874 0.0 
0.83601 0.258938 0.0 
0 0 0.0 
1.07914 -0.00122419 0.0 
1.02079 -0.147186 0.0 
0.6644 -0.0655488 0.0 
0.867742 -0.187343 0.0 
1.0145 0.2556 0.0 
0.0197972 0.000154903 0.0 
0.95977 0.0805531 0.0 
0.50777 0.00484001 0.0 
0.0323091 -0.00913627 0.0 
0 0 0.0 
0.555903 -0.0987495 0.0 
0.248401 0.000191612 0.0 
0.296249 0.00325519 0.0 
0.705665 -0.0593456 0.0 
0.00162807 -5.37277e-05 0.0 
0.357268 0.0109783 0.0 
0.537739 -0.0506034 0.0 
1 0 0.0 
0.0824268 0.00862135 0.0 
0.78778 0.261886 0.0 
0.446897 -0.00783621 0.0 
0 0 0.0 
0.415263 0.0230732 0.0 
0 0 0.0 
0.333783 -0.0114345 0.0 
0.00381085 -0.000232525 0.0 
0.923259 0.25642 0.0 
0.0354459 -0.00203494 0.0 
1.00794 0 0.0 
0.817844 0.0587823 0.0 
1.01152 -0.000576579 0.0 
0.256024 0.00549834 0.0 
0.580955 0.0297931 0.0 
0.00290655 -0.000352443 0.0 
1.00962 -0.000703169 0.0 
0 0 0.0 
0.437282 -0.00111172 0.0 
1.00922 0 0.0 
9.59708e-11 1.16087e-11 0.0 
0 0 0.0 
1.01054 -0.0057868 0.0 
0 0 0.0 
0.890405 -0.207757 0.0 
0.893193 0.277834 0.0 
0.968459 -0.0472795 0.0 
0.21862 0.00224533 0.0 
0 0 0.0 
0.655369 -0.0181583 0.0 
0.383358 0.0449178 0.0 
0 0 0.0 
0.539447 -0.0107104 0.0 
0.24819 0.00922908 0.0 
0.889275 -0.0125899 0.0 
0.101192 0.00553762 0.0 
0.267124 0.0245677 0.0 
0.518365 0.0189625 0.0 
0.106471 0.00583048 0.0 
0.181924 0.0103734 0.0 
0.970672 0.163913 0.0 
1 0 0.0 
0 0 0.0 
0.418548 -0.0104421 0.0 
0.831389 -0.0385152 0.0 
0 0 0.0 
0.851869 0.0371301 0.0 
0.898345 0.187431 0.0 
0.427061 -0.00176765 0.0 
1.10733 0.14246 0.0 
1.00706 0.196935 0.0 
0.791671 0.167888 0.0 
0.756986 0.251785 0.0 
5.75822e-58 2.30462e-58 0.0 
0.400264 0.177212 0.0 
0.377512 -0.0307644 0.0 
0.140019 -0.00874345 0.0 
0.999475 -0.239486 0.0 
0 0 0.0 
1.01 -0.000358199 0.0 
0.930917 0.0957345 0.0 
0.223227 0.0105352 0.0 
0.497642 -0.0403107 0.0 
0.854146 -0.206854 0.0 
0.866633 -0.0956823 0.0 
0.999629 -0.000242396 0.0 
0.0202775 0.00180899 0.0 
0.946061 -0.0455744 0.0 
0.0614668 -0.00144362 0.0 
0.00018125 -4.22871e-06 0.0 
0.649669 0.0488129 0.0 
1.12247 0.0748101 0.0 
0.0218827 -0.000926651 0.0 
1.0675 -0.146511 0.0 
0.870936 0.0119954 0.0 
0.228312 0.0118475 0.0 
0.592718 -0.00194738 0.0 
0.736308 0.0047912 0.0 
7.75773e-05 5.21664e-06 0.0 
1.07636 0.0503577 0.0 
0.652638 0.303241 0.0 
0.159747 0.00460444 0.0 
0.0359014 -0.00285379 0.0 
0.429589 -0.0154348 0.0 
0.997852 0.00123245 0.0 
0 0 0.0 
0.901904 0.106553 0.0 
0.485427 -0.022545 0.0 
1.06635 -0.0347137 0.0 
0 0 0.0 
0.0907404 0.00241351 0.0 
0 0 0.0 
0.8628 -0.135131 0.0 
1 0 0.0 
0 0 0.0 
0.0227231 -0.000295407 0.0 
0 0 0.0 
0.976158 0.0105465 0.0 
0.345866 -0.0112288 0.0 
0.935123 -0.329331 0.0 
0.819473 0.0940563 0.0 
0.215572 -0.0184712 0.0 
0.00622814 -0.000667993 0.0 
0.815384 -0.0920772 0.0 
0 0 0.0 
0 0 0.0 
0 0 0.0 
-1.99022e-304 2.54199e-305 0.0 
0.607541 -0.027318 0.0 
0.00109991 -0.000288519 0.0 
0.975562 -0.0869396 0.0 
1.00035 0.000421151 0.0 
0.997581 0.0235059 0.0 
0 0 0.0 
0.120286 0.0116288 0.0 
0.0158987 0.000356078 0.0 
0.517042 -0.0236558 0.0 
0.388994 -0.00835418 0.0 
0 0 0.0 
0 0 0.0 
0.0151966 0.00104362 0.0 
0.1581 0.00841443 0.0 
0.53879 0.0079614 0.0 
0 0 0.0 
1.01033 -0.28675 0.0 
0.0929266 -0.161978 0.0 
0 0 0.0 
0.527952 -0.00380463 0.0 
0.526281 -0.00394129 0.0 
0.000122772 -3.33212e-06 0.0 
0 0 0.0 
1.09788 0.0460644 0.0 
0 0 0.0 
0.948776 0.29935 0.0 
0.0321133 -0.0021554 0.0 
0.298194 -0.0154572 0.0 
0.977647 -0.339742 0.0 
0.259502 0.0439998 0.0 
0.586921 0.00264064 0.0 
0 0 0.0 
0 0 0.0 
0.349496 -0.171927 0.0 
0 0 0.0 
0.987971 0.0292262 0.0 
0.664655 0.142342 0.0 
1.0108 0.00630242 0.0 
1.00954 0 0.0 
0.701045 0.0159932 0.0 
0.996052 -0.0067253 0.0 
1.00111 0.00238399 0.0 
0.226563 0.000131732 0.0 
0.802433 0.0370712 0.0 
0 0 0.0 
0 0 0.0 
0.757387 -0.0249609 0.0 
0.969258 0.20284 0.0 
0.176483 0.000537287 0.0 
0.806031 0.0774246 0.0 
0.993405 0.000475523 0.0 
0 0 0.0 
0.655022 -0.00113582 0.0 
0.427668 0.205451 0.0 
1.01007 0.242804 0.0 
0.207791 -0.0114225 0.0 
0.379366 0.0272088 0.0 
1.01031 -0.000212205 0.0 
0.13358 0.00783685 0.0 
1.00767 0.0106525 0.0 
0.000834805 -5.92257e-05 0.0 
0 0 0.0 
0.446344 0.0483234 0.0 
0 0 0.0 
1.00943 -0.000795434 0.0 
0 0 0.0 
0.904913 -0.244675 0.0 
0.14066 0.00635633 0.0 
0.000923289 -0.000185151 0.0 
0 0 0.0 