<VTKFile type="UnstructuredGrid" version="0.1" byte_order="LittleEndian">
  <UnstructuredGrid>
    <Piece NumberOfPoints="13663" NumberOfCells="27174">
      <Points>
        <DataArray type = "Float64" NumberOfComponents="3" format="ascii">
0 0 0.0 
14 0 0.0 
14 8 0.0 
0 8 0.0 
4.13827 4.08787 0.0 
4.1916 3.93007 0.0 
5.15553 4.02606 0.0 
4.48262 3.9743 0.0 
4.01347 3.94819 0.0 
3.93483 4.02645 0.0 
4.08235 4.05331 0.0 
4.18547 4.03787 0.0 
0 2.35318 0.0 
5.05182 3.97633 0.0 
5.29301 4.04731 0.0 
4.69391 3.97057 0.0 
4.84006 4.03715 0.0 
4.44478 4.07996 0.0 
4.11623 4.05482 0.0 
8.40909 0 0.0 
4.79858 4.05061 0.0 
4.23959 4.1146 0.0 
4.85947 4.02534 0.0 
6.32634 3.79607 0.0 
4.23972 4.07157 0.0 
4.06288 4.03688 0.0 
4.2529 4.087 0.0 
5.09733 4.01619 0.0 
4.64808 4.05146 0.0 
9.22824 3.89053 0.0 
4.86843 4.19513 0.0 
4.64253 3.95363 0.0 
4.4096 4.07715 0.0 
4.91157 4.00567 0.0 
4.09422 4.06655 0.0 
4.84483 4.02651 0.0 
5.03122 4.01313 0.0 
4.18875 3.93918 0.0 
8.06236 2.47446 0.0 
4.77117 3.98705 0.0 
5.91237 4.25187 0.0 
4.05789 4.06544 0.0 
4.10075 4.03591 0.0 
4.81354 3.97664 0.0 
4.76768 3.98041 0.0 
4.14394 3.94805 0.0 
4.09973 4.06883 0.0 
4.98031 4.02036 0.0 
4.0631 3.94627 0.0 
4.09324 4.07263 0.0 
4.48463 4.0392 0.0 
5.01594 3.97412 0.0 
4.22735 3.91196 0.0 
4.20027 3.96328 0.0 
4.4764 3.99959 0.0 
4.06915 4.04534 0.0 
4.27025 4.04886 0.0 
4.08538 4.02507 0.0 
5.60885 4.01518 0.0 
4.53021 3.97522 0.0 
4.96872 4.01663 0.0 
3.99368 4.01426 0.0 
4.145 4.08513 0.0 
5.00003 4.13175 0.0 
4.94587 4.02527 0.0 
4.70666 4.03293 0.0 
4.13251 4.05883 0.0 
4.31812 4.07534 0.0 
4.5685 4.06882 0.0 
4.4004 4.127 0.0 
5.00489 4.02516 0.0 
4.4329 4.08727 0.0 
4.48341 4.0268 0.0 
4.09424 4.05815 0.0 
3.99988 3.98708 0.0 
4.17478 4.06935 0.0 
3.9831 3.93993 0.0 
3.95112 3.95632 0.0 
3.9788 4.01158 0.0 
5.32293 4.17019 0.0 
5.41155 3.85481 0.0 
4.11482 3.93289 0.0 
10.5498 4.0874 0.0 
5.10916 4.01657 0.0 
4.75762 3.97151 0.0 
4.66951 4.07159 0.0 
7.59514 2.94404 0.0 
4.66278 4.0598 0.0 
3.98558 4.06175 0.0 
4.01091 4.00056 0.0 
4.57494 4.05821 0.0 
4.27133 3.93978 0.0 
4.95708 3.98506 0.0 
4.17786 4.07881 0.0 
4.71603 3.98482 0.0 
5.04607 4.02448 0.0 
4.1628 3.94775 0.0 
4.63833 3.96699 0.0 
5.09798 4.0273 0.0 
4.03283 4.06047 0.0 
4.08831 4.06631 0.0 
4.31999 3.95194 0.0 
13.165 3.29813 0.0 
4.4175 4.12976 0.0 
4.68921 4.0481 0.0 
4.08147 3.99499 0.0 
4.67324 4.04123 0.0 
4.03652 4.02751 0.0 
5.01116 4.01057 0.0 
4.07198 4.07393 0.0 
4.21209 4.09607 0.0 
4.52576 4.0968 0.0 
5.0786 4.01053 0.0 
3.97234 4.03785 0.0 
4.17204 3.92436 0.0 
4.7703 3.98573 0.0 
5.00576 3.98835 0.0 
5.03246 3.98293 0.0 
3.98712 4.04304 0.0 
4.78175 3.98764 0.0 
4.06247 4.08303 0.0 
4.98947 4.00894 0.0 
5.8622 0.652372 0.0 
4.87649 3.99165 0.0 
4.99603 3.97729 0.0 
4.64998 3.98266 0.0 
4.42689 3.99682 0.0 
4.63705 4.04055 0.0 
8.51286 1.84061 0.0 
4.05664 3.81012 0.0 
4.95286 4.03879 0.0 
4.82449 3.99038 0.0 
4.0089 3.92893 0.0 
4.49297 4.15887 0.0 
4.72706 4.04314 0.0 
4.24915 4.05618 0.0 
4.36279 3.95194 0.0 
7.25128 3.94265 0.0 
4.53646 3.96951 0.0 
4.00489 3.99798 0.0 
4.81135 4.03231 0.0 
4.9912 4.02804 0.0 
4.19922 3.95761 0.0 
4.16055 3.98981 0.0 
5.07235 3.99531 0.0 
4.8043 4.0053 0.0 
4.8856 4.0374 0.0 
4.98997 4.02393 0.0 
11.7504 4.22079 0.0 
4.49152 3.96479 0.0 
5.01943 4.02273 0.0 
3.96199 4.03038 0.0 
5.04864 4.04382 0.0 
4.1584 4.03851 0.0 
8.71052 4.14102 0.0 
4.76156 4.05785 0.0 
4.18813 4.09432 0.0 
3.75473 4.26457 0.0 
10.9639 4.12034 0.0 
5.03899 4.01992 0.0 
4.50258 4.0998 0.0 
4.40379 4.06108 0.0 
4.59638 4.05685 0.0 
3.99904 4.00172 0.0 
4.65737 4.07495 0.0 
4.70053 4.04725 0.0 
4.30495 4.07261 0.0 
5.05402 4.03163 0.0 
7.77242 3.24025 0.0 
4.02528 4.01889 0.0 
4.16902 3.98151 0.0 
4.27249 3.94428 0.0 
4.11763 4.04808 0.0 
4.25158 3.98522 0.0 
4.40878 4.06756 0.0 
4.41472 4.04958 0.0 
4.8073 4.03195 0.0 
4.36646 4.07566 0.0 
4.213 4.06906 0.0 
4.00931 3.98845 0.0 
5.0636 3.98872 0.0 
4.94614 4.01303 0.0 
4.95149 4.00086 0.0 
3.98273 4.00621 0.0 
4.12999 4.0555 0.0 
4.98107 3.97981 0.0 
4.63451 4.0786 0.0 
5.03571 4.00684 0.0 
5.04999 4.12927 0.0 
4.98218 4.02738 0.0 
4.02105 4.04639 0.0 
4.50268 3.97454 0.0 
4.27406 4.08825 0.0 
3.95046 4.00001 0.0 
4.31249 3.96218 0.0 
4.22383 4.06305 0.0 
4.8087 3.98901 0.0 
4.71636 4.0456 0.0 
5.15771 3.9871 0.0 
4.03933 4.02885 0.0 
4.00671 4.06674 0.0 
7.10688 3.81214 0.0 
5.4831 4.18071 0.0 
4.96586 3.99142 0.0 
4.35676 4.08048 0.0 
12.194 4.77529 0.0 
4.50903 4.06215 0.0 
8.92501 4.02764 0.0 
4.98171 4.00461 0.0 
4.29506 3.96706 0.0 
4.12639 4.05926 0.0 
4.98463 4.01475 0.0 
4.88474 4.04745 0.0 
4.45097 3.9963 0.0 
5.00134 4.00081 0.0 
4.69061 4.06058 0.0 
4.10504 4.03885 0.0 
4.10898 4.04008 0.0 
5.01224 3.97834 0.0 
4.02873 4.02055 0.0 
3.99592 4.02432 0.0 
4.9259 3.99436 0.0 
4.37829 4.10947 0.0 
4.84541 4.04049 0.0 
3.98742 4.01904 0.0 
4.07895 4.07661 0.0 
10.7354 3.59712 0.0 
3.99745 3.98903 0.0 
4.98159 4.00391 0.0 
4.4024 3.88713 0.0 
4.32531 3.95741 0.0 
4.2609 4.10923 0.0 
0.224418 7.35483 0.0 
4.33291 4.07121 0.0 
6.18245 4.21201 0.0 
4.25593 4.11374 0.0 
4.02949 3.97631 0.0 
5.42064 4.0275 0.0 
4.00724 4.01531 0.0 
4.28115 4.08293 0.0 
4.25325 4.08014 0.0 
4.93276 3.99521 0.0 
4.45774 4.06568 0.0 
4.98174 4.03773 0.0 
8.74855 7.71704 0.0 
3.08171 2.09887 0.0 
4.0309 3.97176 0.0 
4.3703 4.0918 0.0 
12.522 3.70482 0.0 
4.27473 4.09602 0.0 
5.86141 3.89 0.0 
4.48822 4.12583 0.0 
4.00975 4.04675 0.0 
4.6702 4.07623 0.0 
2.67239 0 0.0 
4.89585 4.01891 0.0 
4.25667 4.09902 0.0 
4.50728 4.04977 0.0 
4.25 4.04556 0.0 
5.90933 4.13478 0.0 
4.05174 3.97523 0.0 
4.03695 4.06573 0.0 
4.67563 3.93709 0.0 
4.80857 4.04432 0.0 
4.70316 3.96658 0.0 
4.23233 4.101 0.0 
4.26093 4.08097 0.0 
4.20051 4.07495 0.0 
4.15727 3.96809 0.0 
4.18755 4.11048 0.0 
4.28432 3.96711 0.0 
4.14933 4.05666 0.0 
4.29625 3.95054 0.0 
4.71035 4.02722 0.0 
4.14812 4.09263 0.0 
4.10872 4.07473 0.0 
8.75684 0.585272 0.0 
4.38519 3.96956 0.0 
4.94396 4.01263 0.0 
4.79775 4.03459 0.0 
4.01229 4.05292 0.0 
4.99347 4.02007 0.0 
4.02528 4.00274 0.0 
4.00749 3.97714 0.0 
4.84761 3.98987 0.0 
4.37694 4.12818 0.0 
4.35634 4.0378 0.0 
4.27995 4.04964 0.0 
4.7656 4.03755 0.0 
4.0277 4.00858 0.0 
4.44438 4.05445 0.0 
4.42068 3.97116 0.0 
4.54473 4.04048 0.0 
4.00854 4.04134 0.0 
8.03046 5.83915 0.0 
4.43854 4.04123 0.0 
4.14036 4.11338 0.0 
4.04456 4.02516 0.0 
3.94967 4.05786 0.0 
5.00162 3.97999 0.0 
4.20307 3.95064 0.0 
4.51337 4.04035 0.0 
5.14987 4.00255 0.0 
4.22847 4.07708 0.0 
4.41525 3.96245 0.0 
4.01731 3.97083 0.0 
4.24632 4.05089 0.0 
4.023 4.0265 0.0 
4.09154 3.93527 0.0 
4.2242 4.06087 0.0 
4.6559 7.60199 0.0 
4.24196 3.98731 0.0 
4.10803 3.99306 0.0 
3.95745 3.9636 0.0 
4.44131 3.95584 0.0 
3.99835 4.02918 0.0 
4.48717 4.09717 0.0 
4.15962 4.04639 0.0 
4.3415 4.07067 0.0 
5.3262 4.0473 0.0 
5.05532 3.96524 0.0 
4.08166 4.0494 0.0 
3.98674 3.91813 0.0 
3.99623 4.03627 0.0 
4.03277 4.00935 0.0 
4.05133 4.02283 0.0 
4.36565 4.10014 0.0 
4.02359 3.94782 0.0 
4.1755 3.94311 0.0 
11.174 2.95716 0.0 
4.0781 3.98964 0.0 
4.22361 4.04691 0.0 
4.36478 4.08808 0.0 
4.73371 3.98588 0.0 
5.61751 3.88935 0.0 
4.03015 3.95696 0.0 
4.1955 3.97637 0.0 
4.00652 4.03234 0.0 
3.91494 4.13773 0.0 
4.68905 3.98266 0.0 
4.69283 4.06706 0.0 
4.00427 4.04292 0.0 
3.85158 4.15847 0.0 
11.4371 2.11828 0.0 
6.0634 3.94865 0.0 
4.99643 3.98691 0.0 
3.99047 3.98781 0.0 
3.95773 3.93432 0.0 
4.04839 4.01492 0.0 
4.04721 3.95909 0.0 
4.92822 3.96898 0.0 
11.3017 0 0.0 
4.36003 3.94411 0.0 
4.98996 3.97879 0.0 
5.29766 3.97245 0.0 
4.42042 4.08345 0.0 
4.34963 4.05443 0.0 
4.3994 3.99099 0.0 
3.98298 4.00201 0.0 
4.17782 3.97888 0.0 
4.92029 4.0201 0.0 
4.41253 3.94929 0.0 
4.11241 4.05725 0.0 
4.1401 3.98497 0.0 
4.10988 3.95698 0.0 
4.83532 4.04008 0.0 
4.30682 3.95396 0.0 
4.04131 3.99766 0.0 
4.53109 4.0433 0.0 
5.03609 3.98885 0.0 
0.712024 5.21358 0.0 
3.9756 4.08504 0.0 
4.037 4.008 0.0 
4.06005 3.96532 0.0 
4.21428 4.08445 0.0 
4.04847 4.04817 0.0 
4.01118 3.98048 0.0 
4.05619 4.041 0.0 
4.19216 3.95644 0.0 
4.47209 3.97316 0.0 
4.01683 4.05945 0.0 
3.9514 4.04615 0.0 
4.96309 4.01049 0.0 
4.03373 4.01881 0.0 
4.11397 3.97071 0.0 
4.73142 4.04223 0.0 
4.13003 3.956 0.0 
4.0241 4.0517 0.0 
4.03402 4.05512 0.0 
4.01068 3.99745 0.0 
4.02872 3.99494 0.0 
4.0538 3.95415 0.0 
4.40413 4.05425 0.0 
4.0658 4.04426 0.0 
4.31414 3.95426 0.0 
5.02756 3.99082 0.0 
4.49023 4.08399 0.0 
4.13266 3.98846 0.0 
4.21846 3.91954 0.0 
14 5.17602 0.0 
3.98656 4.03721 0.0 
4.43389 3.9603 0.0 
4.07021 3.95517 0.0 
4.68003 4.05991 0.0 
4.06425 3.93419 0.0 
4.09512 3.96917 0.0 
4.31144 4.09213 0.0 
7.80349 2.81173 0.0 
4.48232 4.10457 0.0 
9.80555 2.41582 0.0 
3.99624 4.02713 0.0 
4.39635 3.90538 0.0 
4.00518 3.97325 0.0 
5.01982 4.03188 0.0 
4.20467 3.96797 0.0 
4.6679 4.0618 0.0 
4.24711 4.08558 0.0 
4.35429 4.08512 0.0 
4.47868 4.08142 0.0 
4.21144 3.95922 0.0 
4.39243 3.95204 0.0 
5.02679 3.9978 0.0 
4.68975 4.04698 0.0 
5.11372 4.15245 0.0 
4.23438 4.04707 0.0 
4.1316 4.07308 0.0 
4.12603 3.95528 0.0 
4.05163 3.99747 0.0 
4.01908 4.00231 0.0 
4.0224 4.02913 0.0 
4.1933 3.96553 0.0 
4.0582 3.9448 0.0 
4.06987 3.96362 0.0 
3.99891 4.05059 0.0 
4.75698 3.97873 0.0 
3.99154 4.0424 0.0 
4.00757 3.98474 0.0 
4.01671 4.01538 0.0 
4.99569 4.00292 0.0 
4.05033 4.00375 0.0 
2.53633 0.42227 0.0 
12.5548 8 0.0 
4.03734 3.98999 0.0 
4.20672 4.05011 0.0 
3.98689 4.0502 0.0 
4.03868 4.02686 0.0 
4.04817 3.99065 0.0 
3.9746 4.03383 0.0 
11.4194 7.77898 0.0 
4.11939 4.09288 0.0 
4.78531 4.06239 0.0 
4.57749 4.07254 0.0 
4.8863 4.02162 0.0 
3.97752 4.04103 0.0 
4.43771 3.8822 0.0 
4.82678 4.05917 0.0 
3.99979 3.98858 0.0 
4.17675 4.04307 0.0 
4.51463 4.0636 0.0 
4.00032 4.0278 0.0 
4.46712 4.06778 0.0 
0 3.17328 0.0 
4.26519 3.92744 0.0 
4.0784 3.94608 0.0 
4.1927 3.95884 0.0 
4.41917 3.9705 0.0 
1.75542 5.41821 0.0 
4.35068 3.96196 0.0 
4.24867 4.13525 0.0 
3.99069 3.9699 0.0 
4.12075 4.05273 0.0 
3.99271 3.9642 0.0 
4.14531 3.95352 0.0 
3.99956 3.96553 0.0 
[...]
<PointData>
  <DataArray type = "Float64" Name="Vitesse" NumberOfComponents="3" format="ascii">
1 0 0.0 
1.00257 0 0.0 
1.00308 0 0.0 
1 0 0.0 
0.991316 0.197809 0.0 
0.894406 -0.0615669 0.0 
0.176706 -0.0110977 0.0 
0.00856796 0.00034949 0.0 
0.948684 -0.310905 0.0 
0.773618 0.0343586 0.0 
0.496951 0.136436 0.0 
0 0 0.0 
1 1e-307 0.0 
0.237671 0.0248056 0.0 
0.355904 -0.0195912 0.0 
0.14594 0.00632373 0.0 
0.0470931 -0.00582655 0.0 
0.233267 -0.00508438 0.0 
0.195021 0.0422228 0.0 
1.00932 0 0.0 
0.109381 -0.0115013 0.0 
1.06193 0.121225 0.0 
0.00453206 -0.000748422 0.0 
1.0006 0.0048781 0.0 
0.187139 0.016283 0.0 
0 0 0.0 
0.588755 0.0497166 0.0 
0.114403 -0.00558162 0.0 
0.006308 -0.0005798 0.0 
0.824933 0.000912463 0.0 
1.06648 -0.036891 0.0 
0.326405 0.0109414 0.0 
0.176904 -0.0026875 0.0 
0 0 0.0 
0.822359 0.209015 0.0 
6.5949e-05 -7.1026e-06 0.0 
0.0546526 -0.00917132 0.0 
0.728911 -0.0427177 0.0 
1.01086 -0.000507891 0.0 
0.0108269 0.000936358 0.0 
1.00888 -0.0144756 0.0 
0.947169 0.30815 0.0 
0 0 0.0 
0.13271 0.00634484 0.0 
0.0750199 0.00344696 0.0 
0.636738 -0.0523739 0.0 
0.839295 0.205038 0.0 
0.0451107 -0.00777005 0.0 
1.02099 -0.2212 0.0 
0.937677 0.242005 0.0 
0 0 0.0 
0.243862 0.025569 0.0 
1.03545 -0.0643016 0.0 
0.107417 -0.000692458 0.0 
0 0 0.0 
0.301419 0.089492 0.0 
0 0 0.0 
0 0 0.0 
0.380339 -0.00338498 0.0 
0.0196728 0.00100432 0.0 
0.025871 -0.004003 0.0 
0.391197 0.212055 0.0 
0.935229 0.178534 0.0 
0.8994 -0.0494094 0.0 
0.0474188 -0.00647682 0.0 
0 0 0.0 
0.233296 0.0481092 0.0 
0.164338 0.00534115 0.0 
0.123976 -0.00810134 0.0 
1.00241 0.0334129 0.0 
0.0759308 -0.0189631 0.0 
0.368959 -0.00397731 0.0 
0 0 0.0 
0.563799 0.13723 0.0 
0.520608 -0.453555 0.0 
0.360178 0.0468587 0.0 
0.875964 -0.225342 0.0 
0.817011 -0.143267 0.0 
0.543097 0.0421101 0.0 
0.990172 -0.0350563 0.0 
0.978789 0.0222512 0.0 
1.0297 -0.139782 0.0 
0.811024 0.00326416 0.0 
0.123166 -0.00575642 0.0 
0.161785 0.0068255 0.0 
0.224136 -0.0165779 0.0 
1.01066 -1.02373e-05 0.0 
0.0921008 -0.00785212 0.0 
0.794326 0.213758 0.0 
0 0 0.0 
0.00672584 -0.000651812 0.0 
0.582352 -0.0107385 0.0 
0.113301 0.00573959 0.0 
0.650432 0.0942704 0.0 
0.00710873 0.000640809 0.0 
0.0942911 -0.0158792 0.0 
0.586316 -0.0380973 0.0 
0.164869 0.00675661 0.0 
0.141436 -0.0138173 0.0 
0.901667 0.33546 0.0 
0.854094 0.228242 0.0 
0.31221 0.00233815 0.0 
0.99593 0.0393159 0.0 
1.0117 0.0280777 0.0 
0.011411 -0.00124624 0.0 
0 0 0.0 
-4.29833e-223 4.50992e-224 0.0 
-2.72993e-49 -1.45027e-49 0.0 
0.0324745 -0.0129923 0.0 
0.987019 0.288872 0.0 
0.906935 0.114352 0.0 
0.524768 -0.0144391 0.0 
0.0969373 -0.00185012 0.0 
0.704666 0.14821 0.0 
1.00484 -0.0875531 0.0 
0.0228469 0.00167273 0.0 
0.111603 0.0194129 0.0 
0.172349 0.0222907 0.0 
0.71337 0.22861 0.0 
0.0103785 0.00138036 0.0 
0.992211 0.285185 0.0 
0.0147071 -0.00378273 0.0 
1.00908 -0.000448793 0.0 
0.0138025 0.000462616 0.0 
0.20912 0.0179446 0.0 
0.00093479 0.0001145 0.0 
0 0 0.0 
0 0 0.0 
1.01052 -0.0006769 0.0 
1.01939 -0.116082 0.0 
0.123161 -0.0143357 0.0 
0.00603904 0.000479164 0.0 
0.952099 -0.24493 0.0 
1.10002 0.0158676 0.0 
0.00586332 -0.000570696 0.0 
0 0 0.0 
0.306103 0.00436461 0.0 
0.725295 0.00262112 0.0 
0.0924152 0.00383561 0.0 
0 0 0.0 
0.00500412 -0.00071577 0.0 
0.084373 -0.0153111 0.0 
0.248941 -0.00467662 0.0 
0 0 0.0 
0.126643 0.0109813 0.0 
0 0 0.0 
0.0756724 -0.0089469 0.0 
0.06491 -0.0128509 0.0 
0.909943 -0.024603 0.0 
0.136024 0.00476828 0.0 
0.0703355 -0.0187607 0.0 
0.706375 0.0906286 0.0 
0.202686 -0.0265569 0.0 
0 0 0.0 
0.889405 -0.00273865 0.0 
0.144985 -0.0136162 0.0 
0.945316 0.139537 0.0 
0.960429 0.0450335 0.0 
0.872484 0.00279946 0.0 
0.0743458 -0.0132711 0.0 
0.575193 -0.0118144 0.0 
-1.51704e-268 1.91895e-270 0.0 
0.00873866 -0.00104371 0.0 
0.0204582 -0.0415658 0.0 
0.256715 -0.0180076 0.0 
0.0144874 -0.00132196 0.0 
0.106528 0.00326998 0.0 
0.130564 -0.0198813 0.0 
1.01051 -0.000558051 0.0 
-4.04262e-107 -1.85168e-107 0.0 
0 0 0.0 
0.48915 -0.0061925 0.0 
0 0 0.0 
0 0 0.0 
0.000161576 -2.51254e-06 0.0 
0 0 0.0 
0.000294569 -4.94075e-05 0.0 
0.148664 0.000985678 0.0 
0.184284 0.0148259 0.0 
0 0 0.0 
0.154522 0.0162606 0.0 
0.00603496 -0.000995646 0.0 
-1.5685e-177 -4.70624e-179 0.0 
0.478833 -0.0109226 0.0 
0.109891 0.0229663 0.0 
0.177083 0.0113332 0.0 
0.289981 -0.0185971 0.0 
0.0593646 -0.00167747 0.0 
0.884496 -0.0503272 0.0 
0.0764934 -0.0121086 0.0 
0.816135 0.365563 0.0 
0.0149611 0.0010304 0.0 
0.564825 0.040031 0.0 
0.721233 -0.042291 0.0 
0.122967 0.00204839 0.0 
0 0 0.0 
0.00971508 0.00042305 0.0 
0.0147872 -0.00121307 0.0 
0.22399 0.0146687 0.0 
-3.28366e-51 -1.18285e-51 0.0 
0.841267 0.271221 0.0 
0.981445 0.00133896 0.0 
0.995183 -0.02705 0.0 
0.0577358 0.00271131 0.0 
0.256907 0.00241121 0.0 
1.00951 -0.00400668 0.0 
-3.47234e-46 4.05434e-48 0.0 
0.724817 -0.000969879 0.0 
0.000858935 -9.97586e-05 0.0 
0.0312916 0.000945625 0.0 
0.29853 0.0567574 0.0 
0.0279425 -0.0057848 0.0 
0.141112 -0.0148655 0.0 
0 0 0.0 
0.00732884 -0.00332385 0.0 
0.120126 -0.0109547 0.0 
0 0 0.0 
0 0 0.0 
0.203734 0.0240462 0.0 
0 0 0.0 
0.549892 0.298071 0.0 
0.0113461 0.00061996 0.0 
0.815569 0.0257118 0.0 
0.0698713 -0.00837683 0.0 
0.517962 0.174614 0.0 
0.998135 0.278661 0.0 
1.00401 -0.00610623 0.0 
0.471821 -0.437966 0.0 
6.51897e-06 -7.44876e-07 0.0 
1.04674 -0.0217667 0.0 
0.210555 0.00303743 0.0 
0.983729 0.0953904 0.0 
1.00002 0.000116374 0.0 
0.057275 0.00025623 0.0 
1.00013 -0.0109102 0.0 
1.0357 0.106154 0.0 
0.350581 -0.103319 0.0 
0.327686 -0.00902739 0.0 
0.136958 0.113065 0.0 
0.413503 0.0248812 0.0 
0.403804 0.0305795 0.0 
0.00580253 0.000342482 0.0 
0.000362186 -1.6971e-05 0.0 
0.133429 -0.0176763 0.0 
1.00838 -0.000164412 0.0 
1.00273 -0.00615045 0.0 
0.607951 -0.190133 0.0 
0.493777 0.00920461 0.0 
1.00984 0.0480003 0.0 
0.740143 0.0583782 0.0 
0.882827 0.0123297 0.0 
0.932472 0.00277369 0.0 
0.781255 0.339207 0.0 
0.279887 -0.0194972 0.0 
1.00263 0 0.0 
0.000420795 -4.56552e-05 0.0 
0.841847 0.0783114 0.0 
0 0 0.0 
0 0 0.0 
0.903772 -0.0161444 0.0 
0.0677378 -0.0100283 0.0 
0.921902 0.323229 0.0 
0.533061 0.0147079 0.0 
0.0707792 -0.00813205 0.0 
0.193822 0.00807252 0.0 
0.932722 0.104769 0.0 
0.407247 0.0288962 0.0 
0.426908 0.0481561 0.0 
9.11393e-10 -4.97809e-12 0.0 
1.08473 0.165689 0.0 
0.0280056 0.00160816 0.0 
2.19781e-08 4.92839e-09 0.0 
0.346378 0.00061814 0.0 
0 0 0.0 
1.01732 0.192449 0.0 
0.907031 0.211101 0.0 
1.00954 -0.000241712 0.0 
0.027613 0.00111165 0.0 
0.00425054 -0.000765345 0.0 
0.006869 -0.000792021 0.0 
0.814944 0.325993 0.0 
0.0510057 -0.0126081 0.0 
0 0 0.0 
0.761646 -0.433055 0.0 
0.0189357 0.00129255 0.0 
1.02975 0.0450869 0.0 
0 0 0.0 
0 0 0.0 
0.000308346 -2.53216e-05 0.0 
0 0 0.0 
0 0 0.0 
0.0187207 0.000399228 0.0 
0 0 0.0 
0.74762 0.354322 0.0 
1.00982 -0.00155787 0.0 
0 0 0.0 
1.08463 0.20514 0.0 
0 0 0.0 
0.798546 0.112667 0.0 
0.186161 0.0198892 0.0 
0.421962 -0.0129381 0.0 
0 0 0.0 
0.160029 0.00463927 0.0 
0.38638 0.0352434 0.0 
0.143577 0.00353437 0.0 
0.845684 -0.36839 0.0 
0 0 0.0 
0.218891 0.111148 0.0 
1.05334 -0.175394 0.0 
-4.30783e-63 -2.56935e-64 0.0 
1.00863 0.000773051 0.0 
0 0 0.0 
0 0 0.0 
0.790517 -0.155165 0.0 
0.250177 0.00628535 0.0 
0.612212 0.322581 0.0 
0.53468 -0.00932012 0.0 
0 0 0.0 
0.041805 0.000591251 0.0 
0.372337 -0.0207086 0.0 
0.337384 0.0291126 0.0 
0.324214 0.089618 0.0 
0.922681 -0.197812 0.0 
0.675244 0.293669 0.0 
0 0 0.0 
0 0 0.0 
0.667536 0.0195466 0.0 
0.989746 -0.310956 0.0 
0.672037 -0.0409273 0.0 
1.0183 -0.00529171 0.0 
0 0 0.0 
0 0 0.0 
0.41924 0.00691374 0.0 
0.00670089 0.000579011 0.0 
0.891389 0.0173358 0.0 
0.991309 -0.322491 0.0 
0 0 0.0 
0.663583 0.372805 0.0 
0.906033 0.097011 0.0 
0.0160589 0.000568012 0.0 
0.188511 -0.0155807 0.0 
0.741885 0.328551 0.0 
0.925523 0.0642162 0.0 
1.01547 0.00155103 0.0 
0.650371 0.00800933 0.0 
0.120567 0.0133457 0.0 
0.541294 -0.342201 0.0 
0.86584 -0.161519 0.0 
0 0 0.0 
0.884564 -0.223817 0.0 
0.256648 0.0116997 0.0 
1.01016 0 0.0 
0.443924 0.00282342 0.0 
0.19199 0.0145523 0.0 
0.379821 0.0179672 0.0 
0.297753 -0.00329363 0.0 
0 0 0.0 
0 0 0.0 
0.475412 -0.0737613 0.0 
0 0 0.0 
0.0153957 -0.00226593 0.0 
0.349385 0.00598068 0.0 
0.338216 0.0666896 0.0 
0 0 0.0 
0.492211 -0.0485538 0.0 
0.0610443 -0.00727688 0.0 
0.2762 0.00228887 0.0 
0 0 0.0 
0 0 0.0 
0.131687 0.0174701 0.0 
0.999909 0.000981087 0.0 
0.849099 0.17613 0.0 
0 0 0.0 
0.512969 -0.0968434 0.0 
0.64719 0.072835 0.0 
0.723041 0.260496 0.0 
0.591054 -0.320994 0.0 
0.290801 0.0925858 0.0 
0.287406 -0.0070014 0.0 
0.0170909 0.000572957 0.0 
0.850281 0.316817 0.0 
0.77152 0.100585 0.0 
0.0063151 -0.00106517 0.0 
0 0 0.0 
2.78605e-14 -1.50262e-15 0.0 
0.00362056 -0.000347868 0.0 
0.442981 -0.0365483 0.0 
0.8509 0.354644 0.0 
0.88565 0.346029 0.0 
0 0 0.0 
0 0 0.0 
0.949743 -0.22507 0.0 
0 0 0.0 
0.298205 0.0867097 0.0 
0.269226 0.00249214 0.0 
0.110966 0.0161418 0.0 
0.310486 -0.00987878 0.0 
0 0 0.0 
0.984106 -0.0603932 0.0 
0.99511 -0.00877275 0.0 
0.678116 0.223243 0.0 
0.181138 0.00510945 0.0 
0.813126 -0.151061 0.0 
0.106064 -0.00940835 0.0 
1.06896 -0.225281 0.0 
0.0829965 -0.00672058 0.0 
0.580521 0.0298608 0.0 
1.01083 -0.000293248 0.0 
0.658139 -0.0064121 0.0 
1.01254 -0.002642 0.0 
0.586006 0.302817 0.0 
0.951728 -0.0141833 0.0 
0.815703 -0.434497 0.0 
0.113755 -0.0226972 0.0 
0.00105082 4.77063e-05 0.0 
0.115926 -0.00973633 0.0 
0.568844 0.0492119 0.0 
0.36312 0.0062227 0.0 
0.264617 -0.00839977 0.0 
0.197962 -0.00251349 0.0 
0.304171 0.0049517 0.0 
0.0723068 0.00810043 0.0 
0.00420383 -0.000217498 0.0 
0.972441 -0.04698 0.0 
0 0 0.0 
0.744849 0.148147 0.0 
0.481744 -0.0425414 0.0 
0 0 0.0 
0 0 0.0 
0.40598 0.207817 0.0 
0.0525741 -9.16174e-06 0.0 
1.04117 -0.23798 0.0 
0.493291 -0.0807077 0.0 
0.76667 0.280463 0.0 
0.0870102 0.00348723 0.0 
0.711201 0.254271 0.0 
0.456323 -0.295367 0.0 
0 0 0.0 
0.0044941 -0.00135981 0.0 
0 0 0.0 
1.0023 -0.000827091 0.0 
1.00552 0 0.0 
0 0 0.0 
0 0 0.0 
0.749269 0.225493 0.0 
-5.91928e-53 -3.11657e-53 0.0 
0 0 0.0 
0.680751 0.149062 0.0 
1.007 -0.000213572 0.0 
1.04949 0.230492 0.0 
0.202639 -0.0182524 0.0 
0.177849 -0.0113493 0.0 
0.00475479 -0.000788718 0.0 
0.709433 0.177464 0.0 
1.05088 -0.0160565 0.0 
0.199161 -0.0189652 0.0 
0.462915 -0.436483 0.0 
0 0 0.0 
0.0169785 -0.000884418 0.0 
0.597662 0.342623 0.0 
0.0394321 -0.00171366 0.0 
1 0 0.0 
0.814531 -0.0272613 0.0 
0.972752 -0.177003 0.0 
0.223812 -0.00412139 0.0 
0.02794 0.000434334 0.0 
0.999802 0.00330361 0.0 
0.13494 0.00373768 0.0 
1.12093 0.123373 0.0 
0.763249 -0.327942 0.0 
0.0613158 0.00620485 0.0 
0.808254 -0.320686 0.0 
0.471303 -0.033651 0.0 
0.833218 -0.364082 0.0 
0.135108 -0.0138003 0.0 
0.585259 0.0132618 0.0 
0.777281 0.00205377 0.0 
0.304767 -0.00880204 0.0 
0.881836 -0.389956 0.0 
0.140495 -0.0150222 0.0 
0 0 0.0 
0.36611 0.00390668 0.0 
0.246148 0.0688397 0.0 
0.673118 0.0689418 0.0 
0.582599 0.00754574 0.0 
0.0691058 0.0092195 0.0 
0.89364 0.278221 0.0 
0.871996 -0.399421 0.0 
0.934884 0.128841 0.0 
0.634878 -0.102061 0.0 
0.81419 -0.0192137 0.0 
3.27602e-10 4.16227e-11 0.0 
0.00163411 -0.000422974 0.0 
0 0 0.0 
-2.74601e-129 -8.47742e-130 0.0 
0.324042 0.0117039 0.0 
0 0 0.0 
0.757374 0.25234 0.0 
0.653084 0.0237204 0.0 
0.0608239 -0.00664926 0.0 
0 0 0.0 
1.01695 -0.00177166 0.0 
0 0 0.0 
0.817983 0.0592513 0.0 
0 0 0.0 
0.813796 -0.0934673 0.0 
0.248036 0.00873578 0.0 
0.0123558 -0.00158387 0.0 
1.01326 -0.00399945 0.0 
0 0 0.0 
0.620866 0.0446762 0.0 
0.723882 0.000409841 0.0 
0 0 0.0 
0.763713 0.0803199 0.0 
0.013416 -0.00115367 0.0 
0.679703 -0.0774287 0.0 
0.528752 -0.00395235 0.0 
1.00517 -0.0480614 0.0 
0.00550526 0.000976381 0.0 
0 0 0.0 
5.22788e-05 -4.75295e-06 0.0 
0 0 0.0 
0.776888 -0.0602902 0.0 
0.719942 0.127874 0.0 
0.0129104 -0.00137869 0.0 
0.87476 0.337383 0.0 
0.257716 0.0221588 0.0 
0.774378 0.123768 0.0 
0 0 0.0 
0.0102846 -0.000278273 0.0 
0.526608 0.0182832 0.0 
1.00001 0.000280139 0.0 
0.938699 0.291296 0.0 
0 0 0.0 
0.678847 0.0614119 0.0 
0.743628 0.110709 0.0 
0.91411 0.330488 0.0 
0.886137 0.32238 0.0 
0.0319379 -0.00909802 0.0 
0.623008 0.195713 0.0 
0.888989 -0.0124295 0.0 
0.877101 0.347514 0.0 
0.107568 -0.0115299 0.0 
0.356916 0.011468 0.0 
0.524507 -0.00067743 0.0 
1.01449 -0.00427831 0.0 
0.0510576 0.00208669 0.0 
0.59243 -0.00157652 0.0 
0.521626 0.0192151 0.0 
0.757216 -0.0976231 0.0 
0.799152 0.118666 0.0 
0.628459 0.359794 0.0 
0.639195 0.0532057 0.0 
0.437031 -0.000780769 0.0 
0.661406 -0.0513146 0.0 
0.60247 0.0163922 0.0 
0 0 0.0 
0.853877 -0.20636 0.0 
0.0160504 0.000231386 0.0 
0.193732 -0.0381087 0.0 
1.00846 -0.000435796 0.0 
1.0014 0.00300504 0.0 
0.18157 0.0026023 0.0 
1.06212 -0.0499828 0.0 
0.298818 0.0165197 0.0 
0.754758 0.0930593 0.0 
0.0917929 0.00257342 0.0 
0.506477 0.0763886 0.0 
0.632067 0.21834 0.0 
0 0 0.0 
1.05905 0.151935 0.0 
0.00113636 7.17276e-05 0.0 
0 0 0.0 
0.226648 0.000136817 0.0 
1.12272 0.0749986 0.0 
1.00415 0 0.0 
0.3353 -0.0104766 0.0 
0.352981 -0.00882337 0.0 
1.01167 -0.0725151 0.0 
4.90663e-09 5.11804e-10 0.0 
1.01812 0.274536 0.0 
0.352881 0.0113251 0.0 
0.0146439 0.000337372 0.0 
1 0 0.0 
0.281889 0.0222032 0.0 
0.0505592 0.0362788 0.0 
0.593454 0.0124366 0.0 
1.00727 -0.180751 0.0 
0.984592 -0.0468462 0.0 
1.00962 -0.000650886 0.0 
0.26153 0.0141545 0.0 
0.343769 0.0614749 0.0 
1.00104 0.00322047 0.0 
0.145307 0.0023047 0.0 
0 0 0.0 
0 0 0.0 
0.176479 0.0119559 0.0 
0 0 0.0 
0.994014 0.0598035 0.0 
0.667957 -0.123112 0.0 
1.00741 0.197173 0.0 
1e-307 1e-307 0.0 
0.260034 0.0228511 0.0 
0.847754 0.339278 0.0 
0.38849 -0.00824906 0.0 
0.0381163 -0.00470728 0.0 
0.949253 0.299655 0.0 
0 0 0.0 
0.253483 0.0305028 0.0 
1.03435 0.137257 0.0 
0.866531 -0.0952571 0.0 
0 0 0.0 
0.975568 -0.129168 0.0 
0 0 0.0 
0 0 0.0 
0.902621 0.337826 0.0 
1.01044 -0.00562931 0.0 
3.33105e-05 5.64023e-06 0.0 
0.230216 0.0038092 0.0 
0.277034 -0.00383688 0.0 
0.826158 -0.0471615 0.0 
0.945925 -0.0458768 0.0 
0 0 0.0 
1.03677 0.0513375 0.0 
0.453186 -0.00899099 0.0 
0.218151 0.00186139 0.0 
0.821113 0.302809 0.0 
0.954436 -0.204537 0.0 
0.306986 0.0121158 0.0 
0.630095 0.119388 0.0 
0.538245 -0.00150499 0.0 
0.0874028 -0.0097074 0.0 
0 0 0.0 
0.807415 -0.0708623 0.0 
1.07937 -0.00120861 0.0 
0.00871027 -0.00158341 0.0 
0.00103407 -0.000198778 0.0 
0.417657 0.0232077 0.0 
-6.50142e-50 -2.60609e-50 0.0 
0.802543 0.0375622 0.0 
0.00613497 -0.000866917 0.0 
0.95972 0.0806617 0.0 
0 0 0.0 
0.228224 0.0119369 0.0 
1.01472 0.0119827 0.0 
1.00767 0 0.0 
0.993414 0.000520856 0.0 
0.427147 -0.00168331 0.0 
0 0 0.0 
0.851547 0.0371512 0.0 
1.01896 0.0297982 0.0 
0.450477 0.0222046 0.0 
0.256529 0.00563637 0.0 
0.63366 0.076595 0.0 
0.0210144 0.00121552 0.0 
0.000304606 2.2044e-05 0.0 
0 0 0.0 
0.0607974 0.0740293 0.0 
0.593472 0.000659941 0.0 
0.00817993 -0.000845505 0.0 
1.00625 0.267622 0.0 
1.07529 0.144479 0.0 
0.961129 0.287984 0.0 
0.587792 -0.123897 0.0 
0.836245 0.25903 0.0 
0 0 0.0 
0.00786539 0.000623408 0.0 
1.02054 -0.147152 0.0 
0.664304 -0.0656464 0.0 
0.867497 -0.186879 0.0 
1.01485 0.255755 0.0 
1.013 2.27802e-05 0.0 
0 0 0.0 
9.3637e-05 -7.48395e-06 0.0 
0 0 0.0 
0.0139028 0.000704932 0.0 
0.555901 -0.0988802 0.0 
0.247868 -0.000432411 0.0 
0.295667 0.00385027 0.0 
0.705746 -0.0593808 0.0 
0.890143 -0.207701 0.0 
0.649821 0.0495056 0.0 
0.537655 -0.0506643 0.0 
1 0 0.0 
0.0826376 0.00877676 0.0 
0.788 0.261963 0.0 
0.00513274 0.000266221 0.0 
1.00942 -4.17112e-05 0.0 
1.05076 -0.0122261 0.0 
0.00868023 0.00122017 0.0 
0.968398 -0.0470552 0.0 
1.00786 0 0.0 
0.923534 0.256535 0.0 
0.757423 -0.0253581 0.0 
0.539879 -0.0112062 0.0 
0.999109 -0.239356 0.0 
1.01071 0.000333842 0.0 
0.66468 0.142365 0.0 
0.0238721 -0.00241629 0.0 
0.176588 0.000608265 0.0 
0.652966 0.303597 0.0 
0 0 0.0 
0.989149 -0.147479 0.0 
1.00919 0 0.0 
0.101822 0.00537523 0.0 
0 0 0.0 
0.0142627 0.000564659 0.0 
0.0226336 -0.000821257 0.0 
0 0 0.0 
0.071908 -0.00931924 0.0 
0.287268 -0.0140711 0.0 
0.527899 -0.00358292 0.0 
0 0 0.0 
0.655306 -0.0186215 0.0 
0.383236 0.0449103 0.0 
0 0 0.0 
0.139562 -0.00863364 0.0 
0.999629 -0.000237917 0.0 
0.976201 0.0106854 0.0 
0.733919 0.00479568 0.0 
0.268458 0.0247406 0.0 
0.418267 -0.0108459 0.0 
0.106895 0.0053453 0.0 
0.182811 0.0104352 0.0 
0.970812 0.163987 0.0 
0.806198 0.0779099 0.0 
0 0 0.0 
1.01026 -0.000218093 0.0 
0.831383 -0.0380553 0.0 
0 0 0.0 
0.934641 -0.328902 0.0 
0.89849 0.187499 0.0 
0 0 0.0 
1.10759 0.142593 0.0 
0.0187237 0.000313644 0.0 
0.791751 0.16793 0.0 
0.0339067 -0.00055657 0.0 
1.00911 0 0.0 
0.40038 0.177217 0.0 
0.377424 -0.030863 0.0 
0.633181 0.00477832 0.0 
0.82924 0.039593 0.0 
0 0 0.0 
0.22579 -0.000182393 0.0 
0.930885 0.0958055 0.0 
0.996043 -0.00666257 0.0 
0.497541 -0.0405594 0.0 
0.000979647 -8.12699e-05 0.0 
0.879429 -0.120085 0.0 
0.0808099 -0.00664304 0.0 
0 0 0.0 
0.485285 -0.0217797 0.0 
0.140177 0.00675154 0.0 
0.863933 0.0115893 0.0 
1.09807 0.0462793 0.0 
1.10605 0.09924 0.0 
0.817463 0.0993668 0.0 
1.06722 -0.146479 0.0 
0.0327353 -0.000629549 0.0 
0.60685 -0.027336 0.0 
0.0947365 -0.00531377 0.0 
0.137264 0.00773894 0.0 
0.00248237 7.08779e-05 0.0 
1.07644 0.0505712 0.0 
0.975428 -0.0866952 0.0 
0 0 0.0 
0.0358427 -0.00278765 0.0 
0.428268 -0.0153207 0.0 
1.00026 0.00601819 0.0 
4.27502e-07 4.8225e-08 0.0 
0.90189 0.106605 0.0 
1.00035 0.000420562 0.0 
1.06666 -0.0345032 0.0 
0.218384 0.00922777 0.0 
0.00874253 0.00050312 0.0 
0 0 0.0 
0.862638 -0.134684 0.0 
1 0 0.0 
1.01057 0.000464669 0.0 
0.00711989 -0.000614245 0.0 
0.206984 -0.0114078 0.0 
0.999465 -0.23404 0.0 
0.345107 -0.0112901 0.0 
0 0 0.0 
0.819403 0.0940915 0.0 
0.0147546 0.000851127 0.0 
0.320171 -0.000124768 0.0 
0.815304 -0.0915754 0.0 
0 0 0.0 
0 0 0.0 
0 0 0.0 
0.0600886 -0.00711893 0.0 
0.378714 -0.000552753 0.0 
0.00374611 -0.000479042 0.0 
0.0155459 0.00144547 0.0 
0 0 0.0 
0.997718 0.0241407 0.0 
0 0 0.0 
-4.19896e-121 -3.47695e-122 0.0 
0.604763 -0.277673 0.0 
0.516566 -0.0229797 0.0 
1.01239 -0.00276192 0.0 
0 0 0.0 
0.0869592 0.00525306 0.0 
0.15852 0.0082811 0.0 
0.539446 0.00813413 0.0 
1.01174 -0.000144735 0.0 
1.00989 -0.286544 0.0 
0.0930779 -0.161977 0.0 
0 0 0.0 
0.882409 -0.202151 0.0 
0 0 0.0 
0 0 0.0 
0.0198474 0.00109373 0.0 
0.00421227 -0.000298455 0.0 
0 0 0.0 
0.464631 0.0695519 0.0 
1.01039 0.242941 0.0 
0.99124 0.0496016 0.0 
0.977141 -0.339383 0.0 
0.259446 0.0439942 0.0 
0.593151 0.00319545 0.0 
1.00001 0.00017297 0.0 
0 0 0.0 
0.0055603 -0.000607213 0.0 
0.379147 0.0272101 0.0 
0.127844 -0.0031137 0.0 
0.0368023 -0.0052233 0.0 
0.660878 -0.00116362 0.0 
0.70044 0.0162125 0.0 
0.0103688 0.000710613 0.0 
1.00111 0.002382 0.0 
0.504905 0.0406994 0.0 
0.10492 0.00425809 0.0 
0 0 0.0 
0.0139299 0.0009023 0.0 
-2.64981e-134 -1.72675e-135 0.0 
0.969613 0.20312 0.0 
0.283969 0.0154053 0.0 
1.00083 0.00697632 0.0 
0.00901673 0.000542977 0.0 
1.0081 -0.000295805 0.0 
0 0 0.0 
0.427614 0.205655 0.0 
0.37201 -0.00169806 0.0 
1.01021 -0.00345094 0.0 
0.00660135 0.000559504 0.0 
1.05017 0.218784 0.0 
0.22935 0.00196949 0.0 
1.01487 0.002527 0.0 
1.08977 -0.146131 0.0 
0 0 0.0 
0.446205 0.048319 0.0 
0.000980404 -0.000186286 0.0 
1.00478 -0.00399619 0.0 
0 0 0.0 
0.90463 -0.244558 0.0 
1.00845 0.0723772 0.0 
0.00714386 -0.000585034 0.0 
0 0 0.0 
0 0 0.0 
0.00838223 0.000174728 0.0 
0 0 0.0 
0 0 0.0 
0 0 0.0 
0.830923 -0.255716 0.0 
0.853827 0.275088 0.0 
0.576575 -0.000108222 0.0 
0.267666 -0.00171846 0.0 
0.0264401 0.00202665 0.0 
0.880244 0.0965955 0.0 
0.00459284 -0.000384226 0.0 
0.324805 0.00331181 0.0 
1.01124 -0.00112705 0.0 
0.998033 -0.119058 0.0 
1.0008 -0.0327537 0.0 
1.00001 5.05343e-05 0.0 
0.885714 -0.0304365 0.0 
0.922076 -0.338464 0.0 
0 0 0.0 
0.318968 -0.0216305 0.0 
0.473239 0.048019 0.0 
0.000111937 -7.05376e-06 0.0 
0.301847 -0.00591655 0.0 
0.0184357 0.00114163 0.0 
1.10115e-05 4.77277e-06 0.0 
1.50605e-07 1.07057e-08 0.0 
0.999399 -0.00194111 0.0 
0.75983 0.0554947 0.0 
1.01106 -0.000850626 0.0 
1.00025 0.000632834 0.0 
3.00161e-07 4.14967e-08 0.0 
0.617884 -0.150947 0.0 
0 0 0.0 
0.778173 -0.134844 0.0 