<VTKFile type="UnstructuredGrid" version="0.1" byte_order="LittleEndian">
  <UnstructuredGrid>
    <Piece NumberOfPoints="13830" NumberOfCells="27508">
      <Points>
        <DataArray type = "Float64" NumberOfComponents="3" format="ascii">
0 0 0.0 
14 0 0.0 
14 8 0.0 
0 8 0.0 
4.25476 4.06723 0.0 
4.78439 4.0445 0.0 
5.15553 4.02606 0.0 
4.17483 4.06183 0.0 
4.01347 3.94819 0.0 
4.60383 3.97857 0.0 
5.11872 3.98879 0.0 
4.05664 3.97681 0.0 
4.97016 4.0072 0.0 
4.65757 4.05162 0.0 
4.04219 4.00834 0.0 
7.78626 4.2478 0.0 
6.02148 3.26453 0.0 
4.44478 4.07996 0.0 
4.52021 4.06302 0.0 
8.40909 0 0.0 
4.79858 4.05061 0.0 
4.69727 4.04736 0.0 
4.10116 3.97726 0.0 
4.33211 4.04373 0.0 
4.73479 4.06782 0.0 
4.54042 3.95637 0.0 
4.06288 4.03688 0.0 
8.95281 7.51699 0.0 
4.50059 3.97502 0.0 
4.00488 3.99671 0.0 
4.59625 4.08805 0.0 
4.78193 3.98339 0.0 
4.5104 4.08178 0.0 
4.01925 4.05221 0.0 
5.03628 3.9624 0.0 
4.09422 4.06655 0.0 
4.64402 3.95366 0.0 
4.40845 4.077 0.0 
5.03122 4.01313 0.0 
4.18875 3.93918 0.0 
4.51194 4.04817 0.0 
3.9871 3.98426 0.0 
4.76703 3.98519 0.0 
0 2.35318 0.0 
4.85186 4.03821 0.0 
4.05789 4.06544 0.0 
4.10075 4.03591 0.0 
4.81354 3.97664 0.0 
4.00748 4.00932 0.0 
4.37555 4.04553 0.0 
4.09973 4.06883 0.0 
4.98031 4.02036 0.0 
4.0631 3.94627 0.0 
4.09324 4.07263 0.0 
4.48463 4.0392 0.0 
5.01594 3.97412 0.0 
4.22735 3.91196 0.0 
1.65671 7.22443 0.0 
4.69386 3.97055 0.0 
4.06915 4.04534 0.0 
4.00273 4.05728 0.0 
4.08538 4.02507 0.0 
3.99543 4.04517 0.0 
4.45689 4.07921 0.0 
4.96872 4.01663 0.0 
3.99368 4.01426 0.0 
4.20054 3.96331 0.0 
4.39244 3.8964 0.0 
4.94587 4.02527 0.0 
4.53742 4.06293 0.0 
4.70666 4.03293 0.0 
4.89396 4.00801 0.0 
3.98227 4.04617 0.0 
4.81584 4.03113 0.0 
4.4004 4.127 0.0 
5.00489 4.02516 0.0 
4.07819 4.04171 0.0 
4.48341 4.0268 0.0 
4.09424 4.05815 0.0 
3.69689 3.78363 0.0 
3.99988 3.98708 0.0 
4.52994 3.97204 0.0 
4.37317 4.11564 0.0 
4.9136 4.00536 0.0 
4.14394 3.94805 0.0 
3.99439 4.02858 0.0 
5.41155 3.85481 0.0 
6.046 4.01942 0.0 
10.5547 3.45901 0.0 
4.0583 3.981 0.0 
9.97973 2.82732 0.0 
10.9589 4.19978 0.0 
7.59514 2.94404 0.0 
4.48909 4.09196 0.0 
4.27463 4.13782 0.0 
4.51552 4.06453 0.0 
5.91081 4.24924 0.0 
3.99336 3.97236 0.0 
4.83434 4.03848 0.0 
0 5.78687 0.0 
4.17786 4.07881 0.0 
5.0973 4.01618 0.0 
5.04607 4.02448 0.0 
4.1628 3.94775 0.0 
4.63833 3.96699 0.0 
5.09798 4.0273 0.0 
4.34585 3.97011 0.0 
4.08831 4.06631 0.0 
4.31999 3.95194 0.0 
4.0662 4.0211 0.0 
4.4175 4.12976 0.0 
4.76788 3.98077 0.0 
4.53011 3.97551 0.0 
4.19057 3.96549 0.0 
5.77626 4.16393 0.0 
4.31811 4.07534 0.0 
5.01116 4.01057 0.0 
4.34881 3.94164 0.0 
4.0096 4.01597 0.0 
4.52576 4.0968 0.0 
5.0786 4.01053 0.0 
4.16838 4.0885 0.0 
3.97234 4.03785 0.0 
4.17204 3.92436 0.0 
4.24218 3.93274 0.0 
5.00576 3.98835 0.0 
4.73689 3.98731 0.0 
4.65849 3.98204 0.0 
3.8957 4.03142 0.0 
4.06818 4.05086 0.0 
4.98947 4.00894 0.0 
4.29278 4.04823 0.0 
4.69694 3.97966 0.0 
4.99603 3.97729 0.0 
4.15754 4.05943 0.0 
4.11193 3.9679 0.0 
4.0058 3.89174 0.0 
4.17478 4.06935 0.0 
4.96536 4.00831 0.0 
4.05664 3.81012 0.0 
4.95286 4.03879 0.0 
4.24133 4.05308 0.0 
4.0089 3.92893 0.0 
4.08147 3.99499 0.0 
4.02759 4.00199 0.0 
4.23959 4.1146 0.0 
4.24915 4.05618 0.0 
4.10704 4.04463 0.0 
4.43225 4.08714 0.0 
4.02357 3.98391 0.0 
4.26747 4.03967 0.0 
4.20438 4.04613 0.0 
4.9912 4.02804 0.0 
4.57117 4.06876 0.0 
4.2529 4.08701 0.0 
5.07235 3.99531 0.0 
4.95716 3.98507 0.0 
4.02617 4.02638 0.0 
4.98997 4.02393 0.0 
4.95678 3.99739 0.0 
5.03246 3.98294 0.0 
5.01943 4.02273 0.0 
3.96199 4.03038 0.0 
5.04864 4.04382 0.0 
4.1584 4.03851 0.0 
4.6966 3.97785 0.0 
4.76156 4.05785 0.0 
4.18813 4.09432 0.0 
4.88438 4.03747 0.0 
4.70862 3.98385 0.0 
5.03899 4.01992 0.0 
4.19159 3.93008 0.0 
4.63867 4.04039 0.0 
4.6896 4.04795 0.0 
4.21212 3.9678 0.0 
4.65737 4.07495 0.0 
4.4027 4.06153 0.0 
5.10912 4.01656 0.0 
5.05402 4.03163 0.0 
4.03283 4.06047 0.0 
3.89305 4.01486 0.0 
4.16902 3.98151 0.0 
4.47567 4.07409 0.0 
4.11763 4.04808 0.0 
4.25158 3.98522 0.0 
6.11133 3.87338 0.0 
4.89205 4.0193 0.0 
7.24435 3.94112 0.0 
5.05182 3.97633 0.0 
4.213 4.06906 0.0 
4.41474 4.04955 0.0 
5.0636 3.98872 0.0 
4.66723 4.07182 0.0 
4.13251 4.05883 0.0 
3.98273 4.00621 0.0 
4.13827 4.08787 0.0 
4.17471 4.08708 0.0 
4.98107 3.97981 0.0 
4.63451 4.0786 0.0 
5.03571 4.00684 0.0 
3.9788 4.01158 0.0 
5.32286 4.17021 0.0 
4.98218 4.02738 0.0 
4.36756 4.07555 0.0 
4.98228 4.02308 0.0 
4.27406 4.08825 0.0 
3.95046 4.00001 0.0 
4.43341 3.9636 0.0 
4.22383 4.06305 0.0 
4.03646 3.96999 0.0 
5.8622 0.652372 0.0 
5.15771 3.9871 0.0 
4.94665 4.01293 0.0 
3.98712 4.04304 0.0 
7.10688 3.81214 0.0 
4.12905 3.94147 0.0 
4.80571 4.00503 0.0 
4.84465 4.02949 0.0 
4.7203 4.04291 0.0 
4.63453 4.05529 0.0 
4.7728 3.98652 0.0 
4.64127 3.9813 0.0 
3.93483 4.02645 0.0 
4.02105 4.04639 0.0 
4.40475 3.97109 0.0 
4.98463 4.01475 0.0 
4.88474 4.04745 0.0 
4.45097 3.9963 0.0 
5.00134 4.00081 0.0 
4.96602 3.99137 0.0 
4.07198 4.07393 0.0 
4.29004 4.08476 0.0 
5.01224 3.97834 0.0 
4.02873 4.02055 0.0 
4.27134 3.93978 0.0 
4.30568 4.07247 0.0 
4.23972 4.07157 0.0 
4.12639 4.05926 0.0 
4.49848 4.06675 0.0 
4.84625 4.04023 0.0 
3.9831 3.93993 0.0 
4.8375 3.99189 0.0 
4.98761 3.99689 0.0 
4.97707 4.0058 0.0 
4.92461 4.01395 0.0 
4.40159 3.88603 0.0 
4.22837 4.06693 0.0 
4.00489 3.99798 0.0 
5.29299 4.04736 0.0 
6.18245 4.21201 0.0 
4.07254 3.98591 0.0 
4.02949 3.97631 0.0 
4.86008 4.025 0.0 
5.41979 4.02725 0.0 
4.28115 4.08293 0.0 
4.25325 4.08014 0.0 
4.145 4.08513 0.0 
4.29322 4.05407 0.0 
4.98174 4.03773 0.0 
4.71637 4.04557 0.0 
4.77024 3.98562 0.0 
4.98916 4.00346 0.0 
5.00003 4.13175 0.0 
4.93784 4.01288 0.0 
4.13347 3.96923 0.0 
5.86141 3.89 0.0 
4.3703 4.0918 0.0 
4.00975 4.04675 0.0 
3.98742 4.01904 0.0 
2.67239 0 0.0 
3.99745 3.98903 0.0 
4.82363 4.0309 0.0 
4.38532 3.97049 0.0 
4.31984 3.96733 0.0 
4.6903 4.06048 0.0 
4.50259 4.09981 0.0 
4.03695 4.06573 0.0 
4.67014 4.07643 0.0 
4.80857 4.04432 0.0 
4.21209 4.09607 0.0 
6.32828 3.79588 0.0 
4.23233 4.101 0.0 
4.26093 4.08097 0.0 
4.20051 4.07495 0.0 
6.58786 2.93463 0.0 
4.18755 4.11048 0.0 
4.06247 4.08303 0.0 
4.49695 4.05573 0.0 
4.49604 3.97996 0.0 
4.29625 3.95054 0.0 
4.71035 4.02722 0.0 
4.04243 3.97424 0.0 
4.2725 3.94428 0.0 
8.75684 0.585272 0.0 
4.08235 4.05331 0.0 
4.03091 3.97176 0.0 
4.43942 4.06779 0.0 
4.63565 3.98204 0.0 
4.99347 4.02007 0.0 
4.20068 3.9577 0.0 
4.00749 3.97714 0.0 
4.49297 4.15887 0.0 
8.06317 2.47559 0.0 
4.64123 4.05089 0.0 
5.16936 4.00113 0.0 
10.1653 4.78636 0.0 
4.66682 4.06515 0.0 
4.0277 4.00858 0.0 
4.44438 4.05445 0.0 
4.3768 3.97052 0.0 
4.45255 3.95756 0.0 
9.1936 3.93828 0.0 
4.00854 4.04134 0.0 
8.03046 5.83915 0.0 
4.43854 4.04123 0.0 
4.30706 4.08024 0.0 
4.40445 4.00546 0.0 
12.2395 4.68861 0.0 
5.00162 3.97999 0.0 
4.68614 4.04759 0.0 
4.36279 3.95195 0.0 
5.60832 4.01516 0.0 
4.00671 4.06674 0.0 
4.25008 4.04533 0.0 
3.08171 2.09887 0.0 
4.01731 3.97083 0.0 
4.35649 4.0805 0.0 
4.24651 4.05075 0.0 
4.09154 3.93527 0.0 
3.95112 3.95632 0.0 
4.6559 7.60199 0.0 
4.24196 3.98731 0.0 
4.10803 3.99306 0.0 
7.66907 7.82694 0.0 
4.67981 3.93518 0.0 
3.99835 4.02918 0.0 
4.25593 4.11374 0.0 
4.37694 4.12818 0.0 
4.11623 4.05482 0.0 
3.99592 4.02432 0.0 
5.3262 4.0473 0.0 
5.05532 3.96524 0.0 
4.07895 4.07661 0.0 
4.94275 3.99537 0.0 
3.99623 4.03627 0.0 
4.03277 4.00935 0.0 
4.05133 4.02283 0.0 
3.99904 4.00172 0.0 
4.81069 4.03234 0.0 
4.70304 3.96657 0.0 
4.1755 3.94311 0.0 
4.81945 4.03208 0.0 
4.0781 3.98964 0.0 
4.22361 4.04691 0.0 
4.36478 4.08808 0.0 
5.38725 4.17921 0.0 
5.61751 3.88935 0.0 
4.26302 4.06941 0.0 
4.24692 3.97915 0.0 
4.00652 4.03234 0.0 
4.35587 4.03775 0.0 
4.44392 3.97298 0.0 
4.47022 3.97109 0.0 
4.34614 3.98184 0.0 
4.00427 4.04292 0.0 
4.94445 4.01253 0.0 
4.2609 4.10923 0.0 
14 4.90308 0.0 
4.99643 3.98691 0.0 
3.99047 3.98781 0.0 
4.20306 3.95065 0.0 
4.41438 4.069 0.0 
4.01229 4.05292 0.0 
4.04839 4.01492 0.0 
4.29475 3.96718 0.0 
4.16734 4.05926 0.0 
4.04085 3.91511 0.0 
4.3502 4.07089 0.0 
4.98996 3.97879 0.0 
4.10898 4.04008 0.0 
4.42042 4.08345 0.0 
4.27851 4.04947 0.0 
4.3994 3.99099 0.0 
5.29707 3.97278 0.0 
4.27473 4.09602 0.0 
4.26957 4.04888 0.0 
4.33285 4.07114 0.0 
5.92385 4.00392 0.0 
4.1401 3.98497 0.0 
4.10988 3.95698 0.0 
3.75472 4.26456 0.0 
4.30682 3.95396 0.0 
4.04131 3.99766 0.0 
4.53398 3.96893 0.0 
4.48599 3.96448 0.0 
5.03609 3.98885 0.0 
0.712024 5.21358 0.0 
3.9756 4.08504 0.0 
4.037 4.008 0.0 
4.06005 3.96532 0.0 
4.68675 4.06723 0.0 
4.03901 4.03154 0.0 
4.04847 4.04817 0.0 
4.01118 3.98048 0.0 
4.10872 4.07473 0.0 
4.79937 4.04282 0.0 
8.74856 7.71704 0.0 
3.98674 3.91813 0.0 
3.9514 4.04615 0.0 
4.31045 4.05365 0.0 
4.03373 4.01881 0.0 
4.43255 4.06916 0.0 
4.96312 4.01047 0.0 
4.48723 4.09718 0.0 
4.0241 4.0517 0.0 
4.03402 4.05512 0.0 
4.01068 3.99745 0.0 
4.02872 3.99494 0.0 
4.48822 4.12583 0.0 
4.40413 4.05425 0.0 
4.92539 3.99449 0.0 
4.75166 3.98805 0.0 
5.02756 3.99082 0.0 
4.49023 4.08399 0.0 
4.06045 3.97425 0.0 
4.21846 3.91954 0.0 
4.17782 3.97888 0.0 
3.98656 4.03721 0.0 
4.41508 3.96236 0.0 
4.07021 3.95517 0.0 
4.11241 4.05725 0.0 
4.67856 4.0597 0.0 
6.05554 3.9505 0.0 
3.91493 4.13773 0.0 
4.14812 4.09263 0.0 
3.98558 4.06175 0.0 
4.96375 4.00504 0.0 
3.94967 4.05786 0.0 
4.02359 3.94782 0.0 
8.72932 4.13936 0.0 
4.00518 3.97325 0.0 
5.01982 4.03188 0.0 
4.39632 3.90538 0.0 
5.04999 4.12927 0.0 
4.37829 4.10947 0.0 
4.35429 4.08512 0.0 
4.47868 4.08142 0.0 
4.1901 3.96755 0.0 
4.01683 4.05945 0.0 
4.25667 4.09902 0.0 
4.30941 3.96258 0.0 
5.11372 4.15245 0.0 
11.3017 0 0.0 
4.1316 4.07308 0.0 
4.12603 3.95528 0.0 
4.05163 3.99747 0.0 
8.51303 1.84098 0.0 
4.4278 3.97355 0.0 
4.06425 3.93419 0.0 
4.21428 4.08445 0.0 
4.06987 3.96362 0.0 
3.99891 4.05059 0.0 
4.75698 3.97873 0.0 
3.99154 4.0424 0.0 
4.80622 4.0319 0.0 
4.01671 4.01538 0.0 
4.4765 3.9996 0.0 
4.05033 4.00375 0.0 
3.98298 4.00201 0.0 
4.04456 4.02516 0.0 
4.03734 3.98999 0.0 
4.20672 4.05011 0.0 
3.98689 4.0502 0.0 
[...]
<PointData>
  <DataArray type = "Float64" Name="Vitesse" NumberOfComponents="3" format="ascii">
1 0 0.0 
0.999561 0 0.0 
1.00131 0 0.0 
1 0 0.0 
0.0276492 0.00151618 0.0 
0.0561448 -0.0063752 0.0 
0.17751 -0.0111153 0.0 
0.0770255 0.00502441 0.0 
0.949326 -0.311416 0.0 
0.0206078 0.00108046 0.0 
0.191229 0.0148212 0.0 
-1.13722e-66 8.03696e-68 0.0 
0.00183973 -0.00035005 0.0 
0.0135247 -0.000888997 0.0 
0 0 0.0 
0.998752 -0.0032928 0.0 
1.01341 0.00359117 0.0 
0.234144 -0.00581136 0.0 
0.0136277 -0.001684 0.0 
1.01068 0 0.0 
0.109569 -0.0114197 0.0 
0.0134721 -0.00128278 0.0 
3.75992e-122 -5.15705e-123 0.0 
0 0 0.0 
0.224716 -0.0187457 0.0 
0.264666 0.00821598 0.0 
0 0 0.0 
1.00845 -0.000261031 0.0 
0.00800401 0.000864629 0.0 
0 0 0.0 
0.403768 -0.0196014 0.0 
0.0521912 0.00304728 0.0 
0.280658 -0.011043 0.0 
0.836026 0.345468 0.0 
0.356809 0.0296217 0.0 
0.822161 0.20893 0.0 
0.325921 0.0112919 0.0 
0.174824 -0.00150612 0.0 
0.0550344 -0.00922061 0.0 
0.729077 -0.0423909 0.0 
0 0 0.0 
0.609196 -0.306992 0.0 
0.0284719 0.00078963 0.0 
1 -2.85627e-14 0.0 
0.0604425 -0.00734292 0.0 
0.946615 0.30788 0.0 
0 0 0.0 
0.132668 0.00621482 0.0 
0 0 0.0 
0 0 0.0 
0.839095 0.20495 0.0 
0.0457011 -0.0078266 0.0 
1.02152 -0.221287 0.0 
0.937337 0.24186 0.0 
0 0 0.0 
0.242444 0.0253736 0.0 
1.03542 -0.0643677 0.0 
1.00115 0.00117977 0.0 
0.146728 0.00628488 0.0 
0.301447 0.0894975 0.0 
0.802543 0.279934 0.0 
0 0 0.0 
0.73164 0.272583 0.0 
0.222666 -0.00662673 0.0 
0.0263492 -0.00401869 0.0 
0.390718 0.210884 0.0 
0.108268 0.000330374 0.0 
1.01336 -0.0198333 0.0 
0.0480991 -0.00654787 0.0 
0.0272312 -0.00124303 0.0 
0 0 0.0 
-6.76416e-233 4.40047e-234 0.0 
0.729605 0.203344 0.0 
0.00251714 -0.000155276 0.0 
1.00243 0.0332077 0.0 
0.0766955 -0.0189849 0.0 
-3.35069e-239 -1.07661e-239 0.0 
0 0 0.0 
0.563779 0.137212 0.0 
0.96149 -0.0323901 0.0 
0.521324 -0.454509 0.0 
0.0586034 0.00331966 0.0 
0.90805 0.0343316 0.0 
0 0 0.0 
0.636918 -0.052046 0.0 
0.602133 0.282954 0.0 
0.977947 0.0213461 0.0 
0.501077 -0.00333939 0.0 
1.05391 0.0272335 0.0 
-3.68326e-255 4.70441e-256 0.0 
1.02434 -5.20453e-05 0.0 
0.782478 -0.00634386 0.0 
1.01241 -0.00225311 0.0 
0.446915 -0.0101631 0.0 
1.12071 0.106966 0.0 
0.0289442 -0.00188158 0.0 
1.0079 -0.0147044 0.0 
0.753576 -0.358883 0.0 
0.0511588 -0.00647868 0.0 
1 0 0.0 
0.650525 0.0942534 0.0 
0.114802 -0.00564168 0.0 
0.0950505 -0.0159251 0.0 
0.5868 -0.0379931 0.0 
0.164531 0.00726621 0.0 
0.142284 -0.0138648 0.0 
0.00195568 0.000133056 0.0 
0.853845 0.228137 0.0 
0.312345 0.00248821 0.0 
0 0 0.0 
1.01162 0.0279246 0.0 
0.0716152 0.00299134 0.0 
0.0179084 0.00167571 0.0 
0.0589527 -0.00199672 0.0 
0.969311 -0.0197845 0.0 
0.165103 0.00342048 0.0 
0.0328011 -0.0130068 0.0 
0.49195 0.000517044 0.0 
0.0562295 0.0461917 0.0 
0.525671 -0.0143273 0.0 
0.0971295 -0.00191454 0.0 
0.912506 0.151369 0.0 
0.704325 0.147406 0.0 
1.00501 -0.0873344 0.0 
0.75666 -0.0283946 0.0 
0.11097 0.019338 0.0 
-5.263e-46 -2.7216e-47 0.0 
0.0109641 0.000823889 0.0 
0.840048 0.0209452 0.0 
0.572198 0.171984 0.0 
0.0149805 -0.00382747 0.0 
0 0 0.0 
0.0510506 0.00303167 0.0 
0.208008 0.0177143 0.0 
0.0707429 0.0113059 0.0 
0.0866289 -0.00486359 0.0 
0.972483 -0.178929 0.0 
0.360308 0.0468642 0.0 
0.00266445 -0.000346954 0.0 
1.01964 -0.116306 0.0 
0.124138 -0.014433 0.0 
0 0 0.0 
0.952613 -0.245387 0.0 
0 0 0.0 
0 0 0.0 
1.06175 0.121068 0.0 
0 0 0.0 
5.71234e-122 5.77625e-123 0.0 
0.367913 -0.00422388 0.0 
0 0 0.0 
0 0 0.0 
0 0 0.0 
0.0851874 -0.0153582 0.0 
0.125536 -0.0085448 0.0 
0.589121 0.0497011 0.0 
0.126091 0.0108887 0.0 
0.113267 0.00556849 0.0 
0.0956991 0.0437151 0.0 
0.0656127 -0.0128939 0.0 
0.00028452 1.33193e-06 0.0 
0.171265 0.0221303 0.0 
0.0710502 -0.0187865 0.0 
0.706126 0.0898221 0.0 
0.203931 -0.0266147 0.0 
0 0 0.0 
0.0697945 0.0036331 0.0 
0.145542 -0.0138007 0.0 
0.945217 0.139453 0.0 
0.0760065 -0.00909011 0.0 
0.0144305 0.00105184 0.0 
0.0749593 -0.0133178 0.0 
0.894451 -0.0613821 0.0 
0 0 0.0 
0.0105475 -0.0015185 0.0 
0.00133306 -5.50532e-05 0.0 
0.257369 -0.0180101 0.0 
0 0 0.0 
0.12359 -0.0057935 0.0 
0.131538 -0.0199304 0.0 
0.900985 0.334997 0.0 
0.839533 0.000551935 0.0 
0 0 0.0 
0.143891 -0.00535453 0.0 
0 0 0.0 
0 0 0.0 
0.916625 0.00671921 0.0 
0.000356753 -4.2352e-05 0.0 
0.710449 0.00167712 0.0 
0.236184 0.024624 0.0 
0.184418 0.0148377 0.0 
0 0 0.0 
0.15365 0.0161367 0.0 
0.225935 -0.0167878 0.0 
0.233356 0.0481178 0.0 
0.478657 -0.0121051 0.0 
0.991036 0.197685 0.0 
0.864469 0.13613 0.0 
0.176163 0.011142 0.0 
0.290669 -0.0184301 0.0 
0.0594821 -0.00174523 0.0 
0.542876 0.0410388 0.0 
0.989979 -0.0352063 0.0 
0.0772786 -0.0121686 0.0 
0.146211 -0.000213551 0.0 
0.0578528 -0.00984797 0.0 
0.565226 0.0399644 0.0 
0.721218 -0.0431085 0.0 
0.132986 0.00421123 0.0 
0 0 0.0 
0.601434 -0.166502 0.0 
1.00938 -0.000560538 0.0 
0.222582 0.0144459 0.0 
0.00621487 -0.00108579 0.0 
0.712904 0.227821 0.0 
0.976713 -0.00106648 0.0 
0.855458 -0.0930558 0.0 
1.39939e-286 1.14497e-287 0.0 
0.0125947 -0.00195549 0.0 
7.20948e-05 -6.42465e-06 0.0 
0.0268711 -0.00271227 0.0 
0.0179941 0.00123385 0.0 
0.00898368 0.00014883 0.0 
0.773478 0.0336629 0.0 
0.815434 0.364951 0.0 
0.0127712 0.000850356 0.0 
0.0283638 -0.00582212 0.0 
0.142162 -0.0151017 0.0 
0 0 0.0 
0.00732849 -0.0033135 0.0 
0.0580389 0.00301295 0.0 
0.986491 0.28862 0.0 
0.443631 0.0253877 0.0 
0.202555 0.0238774 0.0 
0 0 0.0 
0.58254 -0.0110429 0.0 
0.102194 0.00344658 0.0 
0.187295 0.0163022 0.0 
0.298592 0.0567642 0.0 
0.0471448 -0.0030793 0.0 
0.0689648 -0.0084039 0.0 
0.876388 -0.225944 0.0 
-1.16442e-45 -1.03286e-47 0.0 
0.0171345 0.000517145 0.0 
0.00160599 -0.000242611 0.0 
7.1995e-05 -6.31414e-06 0.0 
1.05038 -0.0224742 0.0 
0.0700525 0.00406889 0.0 
0 0 0.0 
0.357823 -0.0196448 0.0 
0.998949 -0.0107877 0.0 
0 0 0.0 
0.350536 -0.103334 0.0 
0.00289706 -0.00037491 0.0 
0.327914 -0.00905765 0.0 
0.413918 0.0247988 0.0 
0.404117 0.030583 0.0 
0.935041 0.178441 0.0 
0 0 0.0 
0.134453 -0.0177532 0.0 
0.0152557 -0.00144345 0.0 
0.0257847 0.000524914 0.0 
0.00131492 -0.000397348 0.0 
0.899923 -0.0496156 0.0 
0.00240249 -0.000381987 0.0 
6.0693e-05 -1.28562e-06 0.0 
0.878176 0.011504 0.0 
0.494445 0.0090153 0.0 
0.780609 0.3385 0.0 
0.517554 0.173549 0.0 
1.00265 0 0.0 
0.472324 -0.439334 0.0 
0.00570986 -0.000853289 0.0 
0.0176704 0.00134777 0.0 
0.0387276 0.000424038 0.0 
0.119597 -0.0111987 0.0 
0.576096 -0.0116863 0.0 
0.921244 0.322799 0.0 
0.282909 -0.0198431 0.0 
0.0709308 -0.00799142 0.0 
0.906935 0.114282 0.0 
0.999814 0.00318211 0.0 
0.932745 0.104681 0.0 
0.407585 0.0288878 0.0 
0.427088 0.048168 0.0 
1.01216 0.000554097 0.0 
1.0844 0.165528 0.0 
0.991634 0.284864 0.0 
0 0 0.0 
4.49925e-137 2.40537e-138 0.0 
0.347047 0.000774196 0.0 
0 0 0.0 
0.238929 -0.0456356 0.0 
0.489534 -0.00658436 0.0 
1.01114 -0.0002263 0.0 
0.496939 0.136426 0.0 
0.608514 -0.190379 0.0 
0.0207382 -0.00160344 0.0 
0.00192265 0.000260665 0.0 
0.0516041 -0.0126372 0.0 
0.246196 -0.00457907 0.0 
0.76231 -0.433523 0.0 
1.09961 0.0158176 0.0 
1.01278 -0.00251659 0.0 
-4.25347e-45 2.55987e-46 0.0 
0.176643 0.00629162 0.0 
1.01098 0.00012968 0.0 
0.150452 -0.012298 0.0 
0 0 0.0 
0 0 0.0 
0.00896414 0.000400785 0.0 
0.226004 0.0064216 0.0 
0.756037 0.0168568 0.0 
0.746972 0.353571 0.0 
1.0096 -0.0014723 0.0 
0 0 0.0 
0.301364 0.0124793 0.0 
0 0 0.0 
1.03127 -0.0135474 0.0 
0.185163 0.0197097 0.0 
0.00452524 -0.000221395 0.0 
0.306671 0.00425391 0.0 
0.379795 -0.00357244 0.0 
0.840711 0.27063 0.0 
0 0 0.0 
1.00276 -0.00622587 0.0 
0.846212 -0.368725 0.0 
0.259438 0.00216128 0.0 
0 0 0.0 
1.05382 -0.175421 0.0 
0.817232 -0.143944 0.0 
1.00865 0.000783075 0.0 
0 0 0.0 
0 0 0.0 
1.00909 -9.18287e-05 0.0 
0.555023 0.0147242 0.0 
0.611628 0.32167 0.0 
1.03561 0.105995 0.0 
1.0297 0.0448669 0.0 
0.195066 0.0422296 0.0 
0.549333 0.297087 0.0 
0.37398 -0.020751 0.0 
0.335367 0.0288965 0.0 
0.997627 0.278426 0.0 
0.0101357 0.0014011 0.0 
0.674691 0.292822 0.0 
0 0 0.0 
0 0 0.0 
0.0202995 -0.0420075 0.0 
0.00505043 -0.000592325 0.0 
0.193978 0.00814787 0.0 
0.67251 -0.0406203 0.0 
0.00877755 -0.00100202 0.0 
0 0 0.0 
0 0 0.0 
0.420043 0.00657638 0.0 
0.998312 -0.033071 0.0 
0.888121 0.016571 0.0 
0.0724586 0.00412282 0.0 
0 0 0.0 
0.662957 0.372002 0.0 
0 0 0.0 
0.00898147 0.000601344 0.0 
0.0436679 0.00144603 0.0 
0 0 0.0 
0.741271 0.327789 0.0 
0.00444803 -0.000916719 0.0 
0.983748 0.0952496 0.0 
1.00353 0.0013239 0.0 
0.120013 0.0131918 0.0 
0.54168 -0.34356 0.0 
0.422095 -0.0132465 0.0 
0.0261299 -0.000984793 0.0 
0.814303 0.325343 0.0 
0 0 0.0 
0.0312247 0.00250903 0.0 
1.68247e-05 2.53159e-06 0.0 
1.02339 -0.219002 0.0 
0.0456731 0.000439409 0.0 
0.190983 0.014311 0.0 
0 0 0.0 
0.299025 -0.00354156 0.0 
0 0 0.0 
0 0 0.0 
0.374644 0.0177807 0.0 
0.740474 0.0582814 0.0 
0 0 0.0 
0.0575783 0.000206915 0.0 
0.4686 -0.00060058 0.0 
0 0 0.0 
0.492508 -0.0485495 0.0 
0.960267 0.0447529 0.0 
0.276818 0.00223898 0.0 
0 0 0.0 
0.0986883 0.00406276 0.0 
0.138573 0.00518021 0.0 
0.13093 0.0173389 0.0 
0.999908 0.00097944 0.0 
0.8487 0.175567 0.0 
0 0 0.0 
0.513091 -0.096733 0.0 
0.186772 -0.0155094 0.0 
0.0671434 0.0241968 0.0 
0.722778 0.260426 0.0 
0.591286 -0.321052 0.0 
0.906781 0.210993 0.0 
0.0549674 -0.00630006 0.0 
1.00857 -0.000134932 0.0 
0.923075 -0.1983 0.0 
0.771264 0.0998886 0.0 
0 0 0.0 
0 0 0.0 
0.0405132 0.000179854 0.0 
0.00654174 -0.000974497 0.0 
0.535677 -0.00923686 0.0 
0.850191 0.35408 0.0 
0.884962 0.345596 0.0 
0 0 0.0 
0 0 0.0 
0.932713 0.00280276 0.0 
0 0 0.0 
0.0120279 0.000727221 0.0 
0.00010703 8.10131e-06 0.0 
0.110345 0.0160266 0.0 
0.311605 -0.0098473 0.0 
8.7552e-06 -1.63026e-06 0.0 
0.984105 -0.0604073 0.0 
0 0 0.0 
0.677658 0.222403 0.0 
0.145065 0.0044148 0.0 
0.813274 -0.150979 0.0 
0.338264 0.0666918 0.0 
0.10332 -0.0092123 0.0 
0.634487 0.0074598 0.0 
0.905779 0.0965737 0.0 
1.01703 0.192317 0.0 
0.793875 0.213097 0.0 
1.72171e-92 -2.32968e-93 0.0 
0.798267 0.112019 0.0 
0.990419 -0.311388 0.0 
0.881032 -0.0060634 0.0 
0.816486 -0.435188 0.0 
0.114716 -0.0227301 0.0 
0.95168 -0.0143017 0.0 
0.885101 -0.0505039 0.0 
0.816001 0.0255535 0.0 
0.364484 0.00629446 0.0 
0.266016 -0.00834346 0.0 
0.0155653 -0.000676079 0.0 
0.849642 0.316231 0.0 
0.842043 0.0782286 0.0 
0.117111 0.0023917 0.0 
0.972564 -0.0471353 0.0 
1.00641 0 0.0 
0.744799 0.148108 0.0 
0.482201 -0.0423076 0.0 
0 0 0.0 
1.01272 -0.00165469 0.0 
1.39664e-05 8.21348e-07 0.0 
1.06953 -0.225435 0.0 
0.647349 0.0728203 0.0 
0.493322 -0.0805046 0.0 
0.766118 0.279746 0.0 
0.0872839 0.00455681 0.0 
0.710698 0.253477 0.0 
-3.16399e-47 4.83611e-48 0.0 
0 0 0.0 
0 0 0.0 
0 0 0.0 
0.475322 -0.0749852 0.0 
0 0 0.0 
0 0 0.0 
0 0 0.0 
0.748806 0.22476 0.0 
4.17875e-16 1.19003e-16 0.0 
1.08418 0.204928 0.0 
0 0 0.0 
0.680406 0.148221 0.0 
0.569211 0.0492091 0.0 
1.04905 0.230299 0.0 
-2.55642e-56 -1.40523e-56 0.0 
0.022361 0.00139852 0.0 
0.991971 -0.322835 0.0 
0.709046 0.176671 0.0 
0.386603 0.0352529 0.0 
0.199952 -0.0192232 0.0 
0.463531 -0.437459 0.0 
0 0 0.0 
1.04574 0.00606628 0.0 
0 0 0.0 
0 0 0.0 
1 0 0.0 
0 0 0.0 
0.97313 -0.177028 0.0 
0.659125 -0.0063322 0.0 
0.00841843 0.000351185 0.0 
-5.8979e-57 -3.91791e-58 0.0 
1.00721 0.0122608 0.0 
1.12059 0.123155 0.0 
0.763818 -0.328838 0.0 
0.183145 0.00500555 0.0 
0.808833 -0.321482 0.0 
0.19758 -0.00438055 0.0 
0.833899 -0.364843 0.0 
0.349401 0.00602886 0.0 
0.585913 0.0131201 0.0 
0.405929 0.20768 0.0 
0 0 0.0 
0 0 0.0 
0.882469 -0.390378 0.0 
0.884973 -0.223926 0.0 
0 0 0.0 
0.443216 -0.0361783 0.0 
0.00916328 0.000527543 0.0 
0.673335 0.068921 0.0 
0 0 0.0 
0.00693368 -0.000340734 0.0 
0.0437981 -0.00434443 0.0 
0.872748 -0.400081 0.0 
0.134111 0.0033168 0.0 
0.111281 -0.00406991 0.0 
0.634924 -0.102001 0.0 
0.00653956 -0.000671841 0.0 
0.00245621 0.000135682 0.0 
0.109121 0.00402722 0.0 
0 0 0.0 
0 0 0.0 
0.323524 0.0115336 0.0 
0.120237 -0.0102613 0.0 
0.324239 0.0896204 0.0 
0.0375249 0.000953097 0.0 
0.00148635 1.66247e-05 0.0 
0 0 0.0 
0.456461 -0.29524 0.0 
0 0 0.0 
1.00329 0 0.0 
0 0 0.0 
0.77925 0.00209517 0.0 
0.564156 0.00302973 0.0 
0.668174 0.0193913 0.0 
1.06603 -0.0371587 0.0 
0 0 0.0 
0.950323 -0.225205 0.0 
0.000626068 1.97333e-05 0.0 
0.240323 0.0446397 0.0 
0 0 0.0 
0 0 0.0 
0.763889 0.0802805 0.0 
0.104852 0.0336987 0.0 
0.934822 0.128761 0.0 
0.680078 -0.0773824 0.0 
0.0119952 -0.00109341 0.0 
1.05486 -0.018471 0.0 
1.00506 -0.0482337 0.0 
0.00548601 0.000978822 0.0 
0 0 0.0 
0.135384 -0.0136626 0.0 
0 0 0.0 
0 0 0.0 
0.719636 0.127094 0.0 
0.585443 0.30187 0.0 
0.874075 0.336853 0.0 
0.067541 -0.00807469 0.0 
0.774081 0.123079 0.0 
0 0 0.0 
0 0 0.0 
0.0198343 0.00110696 0.0 
0.0166911 0.00111269 0.0 
0.93822 0.29108 0.0 
0.597058 0.341719 0.0 
1.04174 -0.238123 0.0 
0.743352 0.109967 0.0 
0.913484 0.330154 0.0 
0.885577 0.32211 0.0 
0.0505707 -0.00166907 0.0 
0.00175981 -8.93019e-06 0.0 
0.814222 -0.0933176 0.0 
0.876398 0.347013 0.0 
0.107763 -0.0113909 0.0 
0.679173 0.0613842 0.0 
0.0156999 -0.00228919 0.0 
1.00232 -0.000836088 0.0 
0.564986 0.00682602 0.0 
0.050997 0.00202012 0.0 
0.249508 0.00677483 0.0 
0.0231318 0.000927506 0.0 
0.0256687 0.00182125 0.0 
0.00670318 -0.000503355 0.0 
0.0346909 0.00178666 0.0 
0.63952 0.0531693 0.0 
0.032668 0.00225338 0.0 
0.661381 -0.0522414 0.0 
1.00547 -0.000398635 0.0 
0 0 0.0 
0.135269 0.024218 0.0 
0.0936099 -0.00825653 0.0 
0.000707641 1.07322e-05 0.0 
0.527276 0.0182244 0.0 
1.0014 0.00300577 0.0 
0.181589 0.00329112 0.0 
0.269274 0.00286649 0.0 
0.816536 -0.0192472 0.0 
0.653633 0.0236217 0.0 
0 0 0.0 
0.444328 0.00262211 0.0 
0.751032 -0.0395005 0.0 
0.62291 0.195683 0.0 
1.0588 0.151797 0.0 
0.00460639 -0.00131604 0.0 
0.290854 0.0926094 0.0 
0 0 0.0 
0.0132355 0.00111182 0.0 
1.00189 0 0.0 
0.07204 0.0080122 0.0 
0.353395 -0.00947581 0.0 
1.01167 -0.0724507 0.0 
0.000136729 1.24255e-05 0.0 
0.0393671 0.00152115 0.0 
0.0223314 0.000990479 0.0 
0 0 0.0 
1.01759 0.274276 0.0 
0.722649 -0.00344657 0.0 
0.117023 -0.00508119 0.0 
0.0282753 0.00136133 0.0 
0.757318 -0.0983929 0.0 
0.984739 -0.0470781 0.0 
0.619243 0.0165406 0.0 
0.261833 0.014143 0.0 
0.343847 0.0614831 0.0 
1.00103 0.00321982 0.0 
0.506195 0.0752814 0.0 
0 0 0.0 
1.05861 0.00132398 0.0 
0.0289227 0.00441466 0.0 
0 0 0.0 
0.141864 0.00320164 0.0 
0.668065 -0.124063 0.0 
0.463484 -0.0330468 0.0 
0.0266033 0.000415315 0.0 
7.19988e-06 2.88446e-06 0.0 
0.847124 0.338938 0.0 
0.30483 -0.00881815 0.0 
0.179602 -0.00596415 0.0 
0.246177 0.0688448 0.0 
0.366623 0.00367092 0.0 
0.352435 0.0113745 0.0 
0.254961 0.0115184 0.0 
1.03417 0.137132 0.0 
0.866122 -0.162103 0.0 
0 0 0.0 
0.976011 -0.129057 0.0 
0 0 0.0 
-2.14816e-183 -2.39563e-184 0.0 
0.280345 0.0219486 0.0 
0.901961 0.337446 0.0 
0.814432 -0.0274611 0.0 
1.06197 -0.0502102 0.0 
0.620669 0.0437204 0.0 
0.278093 -0.00403489 0.0 
0.303785 0.00498922 0.0 
0.993786 0.0595804 0.0 
1e-307 1e-307 0.0 
0.218095 -0.00428856 0.0 
0.790747 -0.155899 0.0 
0.2579 0.0221718 0.0 
0.82051 0.302174 0.0 
0.95487 -0.204541 0.0 
0.260204 0.0228639 0.0 
0.629787 0.118466 0.0 
0.5355 -0.00191942 0.0 
0 0 0.0 
0.999795 0.00329685 0.0 
0.807486 -0.0715223 0.0 
0 0 0.0 
1.01253 -0.00317067 0.0 
1e-307 0 0.0 
0.298237 0.0867166 0.0 
1e-307 1e-307 0.0 
0.25351 0.0305052 0.0 
0.0255035 -0.000264227 0.0 
0.000150871 -1.78758e-05 0.0 
0 0 0.0 
0.0688137 0.00913542 0.0 
0.299068 0.0164443 0.0 
1.00721 0 0.0 
0.627947 0.359189 0.0 
0.230312 0.00357057 0.0 
0 0 0.0 
0.776929 -0.0610073 0.0 
0.00841085 -0.00111707 0.0 
0.305747 0.0120949 0.0 
0.826124 -0.0471329 0.0 
1.03648 0.0511843 0.0 
0.633819 0.0765856 0.0 
0.631616 0.217434 0.0 
0 0 0.0 
0.587252 0.012007 0.0 
0.226053 -1.1183e-05 0.0 
0.586552 9.94263e-05 0.0 
1.00001 0.000280304 0.0 
1.00577 0.267406 0.0 
1.07503 0.144329 0.0 
0.960639 0.287759 0.0 
0.587929 -0.123868 0.0 
0.835934 0.258904 0.0 
0 0 0.0 
0.754866 0.0930285 0.0 
1.021 -0.147094 0.0 
0.664741 -0.0653819 0.0 
0.867834 -0.187475 0.0 
1.0144 0.255553 0.0 
0.0144573 -0.00193167 0.0 
1.00002 0.000116473 0.0 
1.07911 -0.00118542 0.0 
0.00135969 -0.000157694 0.0 
1.01016 0.0121641 0.0 
0.556025 -0.098701 0.0 
0.248805 -0.000609699 0.0 
0.959824 0.0804863 0.0 
0.705945 -0.0591403 0.0 
1.4453e-05 2.20801e-06 0.0 
0.925336 0.0638326 0.0 
0.53808 -0.050498 0.0 
1 0 0.0 
0.0823092 0.00863029 0.0 
0.787707 0.261855 0.0 
0.995394 0.00680671 0.0 
0.447685 -0.00821743 0.0 
1.00855 -0.000390614 0.0 
0 0 0.0 
0 0 0.0 
0.357409 0.0108772 0.0 
0.923175 0.256382 0.0 
0.0351948 -0.0032135 0.0 
1.00786 0 0.0 
0.0200512 0.00063729 0.0 
1.01174 -0.000868016 0.0 
0.414191 0.0229683 0.0 
0 0 0.0 
0.295638 0.00338322 0.0 
0.256346 0.00560531 0.0 
0 0 0.0 
0 0 0.0 
1.00923 0 0.0 
0.145745 0.0338937 0.0 
0 0 0.0 
0.0323638 -0.00912309 0.0 
0.178319 -0.0113749 0.0 
1.00447 0 0.0 
1.00961 -0.000672342 0.0 
0.890595 -0.207773 0.0 
0.218856 0.00174397 0.0 
0 0 0.0 
0.655362 -0.0186936 0.0 
0.383404 0.0449247 0.0 
0 0 0.0 
0.118806 0.0192795 0.0 
0.968478 -0.0473445 0.0 
0.539618 -0.0112719 0.0 
0.101357 0.00548918 0.0 
0.266773 0.0245751 0.0 
0 0 0.0 
0.106657 0.00543949 0.0 
0.181957 0.010293 0.0 
0.970635 0.163887 0.0 
0.817805 0.0586395 0.0 
1.01057 -0.00582557 0.0 
0.195885 -0.051742 0.0 
0.831397 -0.0386537 0.0 
0 0 0.0 
0.0128482 -0.000865633 0.0 
0.898301 0.18741 0.0 
0 0 0.0 
1.10726 0.14241 0.0 
0.333614 -0.00894207 0.0 
0.791644 0.167874 0.0 
0.427706 -0.00183469 0.0 
0.437363 -0.000774868 0.0 
0.400272 0.177242 0.0 
0.377883 -0.0306414 0.0 
0.581148 0.0296821 0.0 
0.88917 -0.012571 0.0 
0 0 0.0 
0.851879 0.0369738 0.0 
0.999714 -0.239541 0.0 
0.93095 0.0957024 0.0 
2.9637e-95 -3.9751e-96 0.0 
0.497979 -0.0400006 0.0 
1 0 0.0 
0.00292569 -0.000359156 0.0 
1.01017 -0.000468993 0.0 
0.419734 -0.0113382 0.0 
0.999629 -0.000244024 0.0 
1.00695 0.196863 0.0 
1.85688e-121 8.49168e-122 0.0 
0.0628828 -0.00110993 0.0 
0.0133173 0.00113963 0.0 
0.517117 0.0188643 0.0 
1.06767 -0.146379 0.0 
0.870981 0.0119893 0.0 
0.89306 0.277721 0.0 
0.649625 0.0485972 0.0 
0.756867 0.251616 0.0 
0.866673 -0.0958065 0.0 
1.07622 0.0503388 0.0 
0.228406 0.0118482 0.0 
0.00880509 -0.000855378 0.0 
0.0358923 -0.00283343 0.0 
0.429911 -0.0154437 0.0 
0.998007 0.000765291 0.0 
0.736433 0.00475051 0.0 
0.901924 0.106532 0.0 
0.0424193 0.00638257 0.0 
1.06629 -0.0347796 0.0 
0 0 0.0 
0.090981 0.002837 0.0 
0 0 0.0 
0.862862 -0.13526 0.0 
1 0 0.0 
0 0 0.0 
0.0225382 -0.000611802 0.0 
0.486053 -0.0211981 0.0 
0.652538 0.303211 0.0 
0.346134 -0.0111435 0.0 
0.945829 -0.0459828 0.0 
0.854248 -0.206997 0.0 
1.12234 0.0747279 0.0 
0.976146 0.0105015 0.0 
0.815419 -0.0922281 0.0 
0 0 0.0 
0 0 0.0 
0 0 0.0 
0.935307 -0.32945 0.0 
0.592558 -0.00184809 0.0 
0.24845 0.00907488 0.0 
0.819506 0.0940427 0.0 
0.606904 -0.0273312 0.0 
0.997438 0.0233327 0.0 
0 0 0.0 
0.000352227 4.62937e-05 0.0 
0.137522 -0.00805576 0.0 
0.516905 -0.0222895 0.0 
0.9756 -0.0870038 0.0 
0 0 0.0 
0 0 0.0 
1.00035 0.000421158 0.0 
0.158113 0.00807655 0.0 
0.53847 0.00787586 0.0 
0.0210311 -0.000291581 0.0 
1.01052 -0.286796 0.0 
0.0928367 -0.161801 0.0 
0 0 0.0 
0 0 0.0 
0 0 0.0 
0.528134 -0.00364404 0.0 
0 0 0.0 
0 0 0.0 
0 0 0.0 
0.0165112 0.00106848 0.0 
0.0328121 -0.00218637 0.0 
0.00415935 -0.000128375 0.0 
0.977844 -0.339838 0.0 
0.259518 0.044003 0.0 
0.585597 0.00240742 0.0 
0.0165596 0.000266937 0.0 
0 0 0.0 
0.00109049 -0.000284138 0.0 
0 0 0.0 
0 0 0.0 
1.09775 0.0460639 0.0 
0 0 0.0 
8.77832e-06 1.06249e-06 0.0 
0.701039 0.0161147 0.0 
0.388987 -0.00839276 0.0 
1.0011 0.00238341 0.0 
0.159731 0.00456933 0.0 
0.00661458 -0.000924322 0.0 
0 0 0.0 
0.664643 0.142335 0.0 
0.948638 0.299261 0.0 
0.969155 0.202756 0.0 
1.00966 0 0.0 
0.996055 -0.0067474 0.0 
0.227267 0.000588992 0.0 
0.0396908 0.00737711 0.0 
0.653529 -0.00141573 0.0 
0.427644 0.205492 0.0 
0.299236 -0.0160531 0.0 
0.00628112 -0.000761217 0.0 
1.00934 0.00724488 0.0 
1.00998 0.242762 0.0 
0.379457 0.0272086 0.0 
1.00526 0.0107923 0.0 
0.000350427 -1.20201e-05 0.0 
0 0 0.0 
0.446398 0.0483288 0.0 
0.176425 0.000539245 0.0 
0.75729 -0.0254699 0.0 
0 0 0.0 
0.905073 -0.244704 0.0 