<VTKFile type="UnstructuredGrid" version="0.1" byte_order="LittleEndian">
  <UnstructuredGrid>
    <Piece NumberOfPoints="13850" NumberOfCells="27548">
      <Points>
        <DataArray type = "Float64" NumberOfComponents="3" format="ascii">
0 0 0.0 
14 0 0.0 
14 8 0.0 
0 8 0.0 
0 5.51023 0.0 
4.82174 4.02068 0.0 
5.15553 4.02606 0.0 
4.20386 4.09167 0.0 
4.01347 3.94819 0.0 
4.6924 4.07087 0.0 
4.1511 4.07689 0.0 
4.35159 4.11683 0.0 
3.96612 4.23701 0.0 
4.29391 4.08249 0.0 
4.65869 4.06255 0.0 
4.17484 4.06183 0.0 
5.03789 3.97658 0.0 
4.07686 3.98202 0.0 
4.25528 3.96545 0.0 
4.05664 3.97681 0.0 
8.40909 0 0.0 
4.79858 4.05061 0.0 
4.96885 3.99643 0.0 
4.02551 4.02269 0.0 
4.03357 3.99646 0.0 
4.23663 4.06647 0.0 
4.14136 4.0564 0.0 
4.06288 4.03688 0.0 
5.11869 3.98881 0.0 
4.81031 4.03177 0.0 
4.44456 4.07981 0.0 
3.98172 4.06844 0.0 
4.05517 4.04952 0.0 
4.96587 4.00891 0.0 
7.79122 4.24555 0.0 
4.10353 4.04265 0.0 
4.09422 4.06655 0.0 
4.01284 3.99994 0.0 
4.40845 4.077 0.0 
5.03122 4.01313 0.0 
4.18875 3.93918 0.0 
4.51194 4.04817 0.0 
4.73495 4.06774 0.0 
4.64458 3.95384 0.0 
4.8506 3.9748 0.0 
4.53048 4.062 0.0 
4.05789 4.06544 0.0 
4.10075 4.03591 0.0 
4.85186 4.03821 0.0 
4.76692 3.98518 0.0 
4.5104 4.08178 0.0 
4.09973 4.06883 0.0 
4.00751 3.98802 0.0 
4.0631 3.94627 0.0 
4.09324 4.07263 0.0 
4.48463 4.0392 0.0 
5.01594 3.97412 0.0 
4.22735 3.91196 0.0 
4.59625 4.08805 0.0 
4.78194 3.98341 0.0 
4.06915 4.04534 0.0 
4.01925 4.05221 0.0 
4.08538 4.02507 0.0 
4.98031 4.02036 0.0 
0 2.35318 0.0 
4.96872 4.01663 0.0 
3.99368 4.01426 0.0 
4.7846 4.04466 0.0 
4.69386 3.97053 0.0 
4.94587 4.02527 0.0 
4.53742 4.06293 0.0 
4.70666 4.03293 0.0 
4.01782 4.02323 0.0 
4.04219 4.00834 0.0 
8.95281 7.51699 0.0 
4.4004 4.127 0.0 
5.00489 4.02516 0.0 
4.29816 4.08875 0.0 
4.48341 4.0268 0.0 
4.09424 4.05815 0.0 
4.20056 3.96334 0.0 
3.99988 3.98708 0.0 
5.03628 3.96239 0.0 
3.97238 3.87987 0.0 
4.00273 4.05728 0.0 
4.00748 4.00932 0.0 
4.89575 4.00785 0.0 
5.41155 3.85481 0.0 
4.45693 4.07921 0.0 
10.5547 3.45901 0.0 
4.52996 3.97199 0.0 
4.9157 4.00532 0.0 
4.4128 4.07229 0.0 
7.59514 2.94404 0.0 
4.14394 3.94805 0.0 
6.0445 4.01892 0.0 
4.89671 4.00932 0.0 
4.10055 4.04805 0.0 
4.10116 3.97726 0.0 
4.83434 4.03848 0.0 
4.30263 3.96929 0.0 
4.50999 4.06455 0.0 
4.17786 4.07881 0.0 
3.99439 4.02858 0.0 
5.04607 4.02448 0.0 
4.1628 3.94775 0.0 
4.63833 3.96699 0.0 
5.09798 4.0273 0.0 
3.99543 4.04517 0.0 
4.08831 4.06631 0.0 
4.31999 3.95194 0.0 
3.98227 4.04617 0.0 
4.4175 4.12976 0.0 
4.33208 4.04373 0.0 
4.00488 3.99671 0.0 
4.76476 4.05417 0.0 
4.7679 3.98074 0.0 
4.94647 3.99512 0.0 
4.65285 3.98229 0.0 
5.01116 4.01057 0.0 
5.91056 4.24911 0.0 
3.9871 3.98426 0.0 
4.52576 4.0968 0.0 
4.0583 3.981 0.0 
5.0786 4.01053 0.0 
5.09722 4.01627 0.0 
3.97234 4.03785 0.0 
4.17204 3.92436 0.0 
4.27463 4.13782 0.0 
5.00576 3.98835 0.0 
4.90046 4.03189 0.0 
4.37317 4.11564 0.0 
4.66244 3.98094 0.0 
4.97968 4.0055 0.0 
4.98947 4.00894 0.0 
9.08905 5.07533 0.0 
4.81541 4.03119 0.0 
4.99603 3.97729 0.0 
4.48912 4.09196 0.0 
4.39204 3.89642 0.0 
4.29269 4.04823 0.0 
4.69692 3.97965 0.0 
4.8125 3.9766 0.0 
4.05664 3.81012 0.0 
4.95286 4.03879 0.0 
4.7925 4.03483 0.0 
4.0089 3.92893 0.0 
3.99336 3.97236 0.0 
4.32104 4.04602 0.0 
4.16838 4.0885 0.0 
4.24915 4.05618 0.0 
4.2483 4.06818 0.0 
4.43225 4.08714 0.0 
4.609 3.87673 0.0 
4.26747 4.03967 0.0 
8.6575 4.80649 0.0 
4.9912 4.02804 0.0 
4.08147 3.99499 0.0 
4.91475 3.99577 0.0 
5.07235 3.99531 0.0 
4.37555 4.04552 0.0 
3.8957 4.03142 0.0 
4.98997 4.02393 0.0 
4.53223 3.9552 0.0 
4.17478 4.06935 0.0 
5.01943 4.02273 0.0 
3.96199 4.03038 0.0 
5.04864 4.04382 0.0 
4.1584 4.03851 0.0 
4.95717 3.98506 0.0 
4.34878 3.94165 0.0 
4.76156 4.05785 0.0 
4.18813 4.09432 0.0 
4.88438 4.03747 0.0 
5.03245 3.98297 0.0 
5.03899 4.01992 0.0 
4.10116 4.04973 0.0 
4.06818 4.05086 0.0 
4.17092 4.06011 0.0 
4.24218 3.93274 0.0 
4.65737 4.07495 0.0 
4.4027 4.06153 0.0 
4.63763 4.0403 0.0 
5.05402 4.03163 0.0 
4.24133 4.05308 0.0 
4.11193 3.9679 0.0 
4.16902 3.98151 0.0 
4.23959 4.1146 0.0 
4.97013 4.00716 0.0 
4.11763 4.04808 0.0 
4.25158 3.98522 0.0 
4.92435 4.01646 0.0 
3.69689 3.78363 0.0 
4.31798 4.07536 0.0 
4.10704 4.04463 0.0 
4.213 4.06906 0.0 
7.23794 3.93892 0.0 
5.0636 3.98872 0.0 
4.73673 3.98575 0.0 
5.10899 4.0167 0.0 
3.98273 4.00621 0.0 
4.03283 4.06047 0.0 
4.41474 4.04955 0.0 
4.98107 3.97981 0.0 
4.63451 4.0786 0.0 
5.03571 4.00684 0.0 
4.25289 4.08701 0.0 
4.66725 4.07183 0.0 
4.98218 4.02738 0.0 
4.69018 4.0479 0.0 
4.69657 3.97782 0.0 
4.27406 4.08825 0.0 
3.95046 4.00001 0.0 
7.25571 1.94245 0.0 
4.22383 4.06305 0.0 
4.20438 4.04613 0.0 
4.02759 4.00199 0.0 
5.15771 3.9871 0.0 
4.94665 4.01293 0.0 
4.47572 4.07406 0.0 
7.10688 3.81214 0.0 
4.4414 4.05213 0.0 
4.55848 4.05696 0.0 
4.19159 3.93008 0.0 
4.54877 4.06217 0.0 
4.41146 3.97148 0.0 
6.11219 3.87305 0.0 
3.89305 4.01486 0.0 
4.84451 4.02938 0.0 
4.70069 4.05627 0.0 
4.13251 4.05883 0.0 
4.98463 4.01475 0.0 
4.88474 4.04745 0.0 
4.45097 3.9963 0.0 
5.00134 4.00081 0.0 
4.80722 4.00507 0.0 
5.32281 4.17023 0.0 
3.98712 4.04304 0.0 
5.01224 3.97834 0.0 
4.02873 4.02055 0.0 
4.02105 4.04639 0.0 
4.30568 4.07247 0.0 
5.8622 0.652372 0.0 
5.05181 3.97632 0.0 
4.96598 3.99135 0.0 
4.12639 4.05926 0.0 
4.8759 4.02304 0.0 
4.84631 4.04045 0.0 
3.9788 4.01158 0.0 
4.0058 3.89174 0.0 
4.17471 4.08708 0.0 
4.40159 3.88603 0.0 
4.98228 4.02308 0.0 
4.66182 3.98248 0.0 
9.98021 2.83082 0.0 
4.64987 4.04233 0.0 
4.07198 4.07393 0.0 
4.02949 3.97631 0.0 
6.15869 4.20766 0.0 
4.12905 3.94147 0.0 
4.28115 4.08293 0.0 
4.25325 4.08014 0.0 
5.4186 4.02675 0.0 
4.63455 4.05529 0.0 
4.55233 4.05877 0.0 
4.98174 4.03773 0.0 
4.27134 3.93978 0.0 
4.29004 4.08476 0.0 
4.13827 4.08787 0.0 
4.57141 4.06866 0.0 
4.6577 4.0516 0.0 
4.70818 3.98391 0.0 
5.86141 3.89 0.0 
4.02778 4.026 0.0 
4.00975 4.04675 0.0 
4.00489 3.99798 0.0 
4.37029 4.0918 0.0 
2.67239 0 0.0 
3.9831 3.93993 0.0 
4.29313 4.05408 0.0 
4.7164 4.0456 0.0 
3.98742 4.01904 0.0 
4.19008 3.96548 0.0 
4.15754 4.05943 0.0 
4.03695 4.06573 0.0 
4.67014 4.07643 0.0 
4.80857 4.04432 0.0 
3.99745 3.98903 0.0 
4.69739 4.04543 0.0 
4.23233 4.101 0.0 
4.26093 4.08097 0.0 
4.20051 4.07495 0.0 
5.29299 4.04736 0.0 
4.18755 4.11048 0.0 
4.96523 4.00826 0.0 
4.49695 4.05573 0.0 
4.03646 3.96999 0.0 
4.29625 3.95054 0.0 
4.71035 4.02722 0.0 
4.68875 4.06048 0.0 
4.25875 3.96629 0.0 
8.75684 0.585272 0.0 
4.23972 4.07157 0.0 
4.36726 4.07546 0.0 
4.03766 3.9765 0.0 
4.9876 3.99696 0.0 
4.99347 4.02007 0.0 
3.93483 4.02645 0.0 
4.00749 3.97714 0.0 
4.97708 4.00582 0.0 
4.54872 3.9771 0.0 
4.03091 3.97176 0.0 
4.95666 3.99749 0.0 
4.50259 4.09981 0.0 
4.66682 4.06515 0.0 
4.0277 4.00858 0.0 
4.44438 4.05445 0.0 
4.20066 3.9577 0.0 
4.45255 3.95756 0.0 
4.145 4.08513 0.0 
4.00854 4.04134 0.0 
8.03046 5.83915 0.0 
4.43854 4.04123 0.0 
4.31983 3.96737 0.0 
4.60373 3.97888 0.0 
4.22837 4.06692 0.0 
5.00162 3.97999 0.0 
4.21209 4.09607 0.0 
6.91636 2.65214 0.0 
5.00003 4.13175 0.0 
4.51536 4.06417 0.0 
4.25008 4.04533 0.0 
4.2725 3.94428 0.0 
4.01731 3.97083 0.0 
4.69825 4.04722 0.0 
4.24651 4.05075 0.0 
4.09154 3.93527 0.0 
12.2543 4.68168 0.0 
4.6559 7.60199 0.0 
4.24196 3.98731 0.0 
4.10803 3.99306 0.0 
4.06247 4.08303 0.0 
4.43342 3.96366 0.0 
3.99835 4.02918 0.0 
4.13349 3.96923 0.0 
4.98916 4.00346 0.0 
4.00671 4.06674 0.0 
4.45103 3.96619 0.0 
5.3262 4.0473 0.0 
5.05532 3.96524 0.0 
4.49297 4.15887 0.0 
4.68205 3.93542 0.0 
3.99623 4.03627 0.0 
4.03277 4.00935 0.0 
4.05133 4.02283 0.0 
4.13692 4.05785 0.0 
3.08171 2.09887 0.0 
4.12601 3.96741 0.0 
4.1755 3.94311 0.0 
4.07819 4.04171 0.0 
4.0781 3.98964 0.0 
4.22361 4.04691 0.0 
4.36478 4.08808 0.0 
4.37694 4.12818 0.0 
5.61751 3.88935 0.0 
4.08235 4.05331 0.0 
4.24692 3.97915 0.0 
4.00652 4.03234 0.0 
4.9712 3.99666 0.0 
4.25593 4.11374 0.0 
4.3768 3.9706 0.0 
4.34614 3.98184 0.0 
4.00427 4.04292 0.0 
4.94445 4.01253 0.0 
3.99592 4.02432 0.0 
4.70226 3.96654 0.0 
4.99643 3.98691 0.0 
3.99047 3.98781 0.0 
4.35642 4.08052 0.0 
6.27553 3.20844 0.0 
4.07895 4.07661 0.0 
4.04839 4.01492 0.0 
4.3628 3.95195 0.0 
4.35589 4.03775 0.0 
8.06315 2.47592 0.0 
4.54101 4.06222 0.0 
4.98996 3.97879 0.0 
6.32932 3.79555 0.0 
9.31386 4.34438 0.0 
4.42042 4.08344 0.0 
4.3994 3.99099 0.0 
3.99904 4.00172 0.0 
4.6865 4.04749 0.0 
4.20306 3.95065 0.0 
4.35021 4.07077 0.0 
9.19541 3.93853 0.0 
4.1401 3.98497 0.0 
4.10988 3.95698 0.0 
4.40324 4.00563 0.0 
4.30682 3.95396 0.0 
4.04131 3.99766 0.0 
5.16934 4.00114 0.0 
4.2609 4.10923 0.0 
5.03609 3.98885 0.0 
0.712024 5.21358 0.0 
3.9756 4.08504 0.0 
4.037 4.008 0.0 
4.06005 3.96532 0.0 
4.68675 4.06723 0.0 
4.33286 4.07112 0.0 
4.04847 4.04817 0.0 
4.01118 3.98048 0.0 
4.01229 4.05292 0.0 
4.93804 4.01285 0.0 
4.43938 4.06773 0.0 
4.80281 4.0349 0.0 
3.9514 4.04615 0.0 
4.47008 3.97115 0.0 
4.03373 4.01881 0.0 
4.79937 4.0428 0.0 
3.95112 3.95632 0.0 
4.27848 4.04947 0.0 
4.0241 4.0517 0.0 
4.03402 4.05512 0.0 
4.01068 3.99745 0.0 
4.02872 3.99494 0.0 
4.81018 4.03257 0.0 
4.40413 4.05425 0.0 
4.96312 4.01046 0.0 
7.0565 3.68886 0.0 
5.02756 3.99082 0.0 
4.49023 4.08399 0.0 
4.27473 4.09602 0.0 
4.21846 3.91954 0.0 
5.60803 4.01512 0.0 
3.98656 4.03721 0.0 
3.98674 3.91813 0.0 
4.07021 3.95517 0.0 
4.17783 3.97887 0.0 
10.1754 4.76645 0.0 
4.67865 4.05962 0.0 
4.68416 4.05975 0.0 
4.53358 3.96886 0.0 
4.10898 4.04008 0.0 
4.48723 4.09718 0.0 
4.77271 3.98632 0.0 
4.11241 4.05725 0.0 
6.05535 3.95132 0.0 
4.10872 4.07473 0.0 
4.00518 3.97325 0.0 
5.01982 4.03188 0.0 
4.0096 4.01597 0.0 
4.72877 3.9858 0.0 
4.43254 4.06914 0.0 
4.35429 4.08512 0.0 
4.47868 4.08142 0.0 
3.7547 4.26455 0.0 
4.82307 4.0309 0.0 
3.91493 4.13772 0.0 
4.81931 4.03214 0.0 
5.11372 4.15245 0.0 
8.74856 7.71704 0.0 
4.1316 4.07308 0.0 
4.12603 3.95528 0.0 
4.05163 3.99747 0.0 
4.01683 4.05945 0.0 
4.26956 4.04888 0.0 
4.48822 4.12583 0.0 
8.81315 4.13745 0.0 
4.06987 3.96362 0.0 
3.99891 4.05059 0.0 
4.75698 3.97873 0.0 
3.99154 4.0424 0.0 
[...]
<PointData>
  <DataArray type = "Float64" Name="Vitesse" NumberOfComponents="3" format="ascii">
1 0 0.0 
0.999321 0 0.0 
1.0011 0 0.0 
1 0 0.0 
1 0 0.0 
1e-307 0 0.0 
0.178 -0.0111633 0.0 
0.852096 0.111464 0.0 
0.949596 -0.311703 0.0 
0.231084 -0.0182855 0.0 
0.735711 0.131692 0.0 
0.947127 0.0460157 0.0 
0.97176 0.105531 0.0 
0.379242 0.0200403 0.0 
0.116953 -0.0100842 0.0 
0.0770195 0.00501112 0.0 
0.226578 0.0249912 0.0 
0 0 0.0 
0.0540814 0.00304756 0.0 
1.82084e-64 -1.28792e-65 0.0 
1.011 0 0.0 
0.109821 -0.0113561 0.0 
0.0122475 0.000864375 0.0 
0 0 0.0 
0 0 0.0 
0.0365934 0.0047976 0.0 
0.0572271 0.0068302 0.0 
0 0 0.0 
0.190361 0.0147025 0.0 
0.00128415 -8.97044e-05 0.0 
0.231502 -0.00644089 0.0 
0.811785 0.196814 0.0 
0.687783 0.232522 0.0 
0.00406065 -0.00078144 0.0 
0.997523 -0.00440407 0.0 
0 0 0.0 
0.822032 0.208867 0.0 
0 0 0.0 
0.175111 -0.00100139 0.0 
0.0553383 -0.00916505 0.0 
0.729255 -0.0430749 0.0 
0 0 0.0 
0.224309 -0.0188845 0.0 
0.323562 0.0111608 0.0 
0.166174 0.00723667 0.0 
0.0112282 -2.66724e-05 0.0 
0.946312 0.307711 0.0 
0 0 0.0 
0.0605923 -0.00765383 0.0 
0.0277956 0.00190378 0.0 
0.280888 -0.0113359 0.0 
0.838966 0.204887 0.0 
0.185714 -0.137249 0.0 
1.02167 -0.221375 0.0 
0.937134 0.241764 0.0 
0 0 0.0 
0.241652 0.0252976 0.0 
1.0355 -0.064455 0.0 
0.404024 -0.019616 0.0 
0.051654 0.00197936 0.0 
0.301432 0.0894865 0.0 
0.835666 0.345164 0.0 
0 0 0.0 
0.0459 -0.00785919 0.0 
1 0 0.0 
0.026462 -0.00408926 0.0 
0.390447 0.210239 0.0 
0.0575309 -0.00656147 0.0 
0.146019 0.00600633 0.0 
0.0482598 -0.00657484 0.0 
0.0275745 -0.00147766 0.0 
0 0 0.0 
0.183682 0.104401 0.0 
0 0 0.0 
1.00847 -0.000386345 0.0 
1.00225 0.0333417 0.0 
0.077047 -0.0189873 0.0 
0.527268 0.0294177 0.0 
0 0 0.0 
0.563748 0.137191 0.0 
0.105207 0.00119504 0.0 
0.521523 -0.455053 0.0 
0.355607 0.0294836 0.0 
0.947682 -0.146523 0.0 
0.802235 0.279594 0.0 
0 0 0.0 
0 0 0.0 
0.977405 0.0208629 0.0 
0.222286 -0.00654642 0.0 
1.02968 0.0560074 0.0 
0.0584762 0.00328342 0.0 
0 0 0.0 
0.0878008 -0.000482819 0.0 
1.0131 -0.00294743 0.0 
0.636314 -0.0513624 0.0 
0.501073 -0.00365335 0.0 
-3.44742e-144 2.24274e-145 0.0 
-3.28706e-188 -3.32023e-189 0.0 
-9.72353e-120 1.44615e-120 0.0 
0.051114 -0.00630121 0.0 
0.000687907 -1.15381e-06 0.0 
0.0249331 -0.0018891 0.0 
0.650574 0.0942205 0.0 
0.601819 0.282456 0.0 
0.0955099 -0.0159014 0.0 
0.585741 -0.0387269 0.0 
0.164307 0.00668255 0.0 
0.142873 -0.0138703 0.0 
0.731338 0.272185 0.0 
0.853686 0.228061 0.0 
0.311807 0.00249475 0.0 
0.72936 0.202942 0.0 
1.01152 0.0280615 0.0 
0 0 0.0 
0 0 0.0 
0.115966 -0.0116592 0.0 
0.0713551 0.00351973 0.0 
0.0145319 0.000876621 0.0 
0.000319593 5.14014e-05 0.0 
0.0329409 -0.0129509 0.0 
1.00727 -0.0146954 0.0 
0.609356 -0.307578 0.0 
0.525894 -0.0143945 0.0 
-2.96084e-169 3.78171e-170 0.0 
0.097258 -0.00192588 0.0 
0.115116 -0.00577718 0.0 
0.704126 0.14698 0.0 
1.00476 -0.0877986 0.0 
1.1205 0.106832 0.0 
0.110722 0.0193201 0.0 
0.0550284 -0.00705409 0.0 
0.907815 0.0343646 0.0 
0.0228056 0.00169358 0.0 
0.0019762 -0.000443075 0.0 
0.015082 -0.00381811 0.0 
1.00958 -0.000551446 0.0 
0.002258 -0.000183554 0.0 
0.2074 0.0176235 0.0 
0.447256 -0.0100623 0.0 
1.01314 -0.0201193 0.0 
0 0 0.0 
0.0508036 0.00223055 0.0 
0.132046 0.00623789 0.0 
1.01976 -0.116495 0.0 
0.124555 -0.0145359 0.0 
0.00524497 -0.000217436 0.0 
0.952822 -0.245656 0.0 
0.753833 -0.35937 0.0 
0 0 0.0 
0.912434 0.151308 0.0 
0 0 0.0 
0.0623181 0.00428353 0.0 
0.368727 -0.00429513 0.0 
1.0216 0.00136348 0.0 
0 0 0.0 
1.00844 -0.000782558 0.0 
0.0855358 -0.0153966 0.0 
0 0 0.0 
7.91567e-48 5.12334e-49 0.0 
0.125756 0.0108507 0.0 
0 0 0.0 
0.839976 0.0206367 0.0 
0.0658967 -0.0129205 0.0 
0.277522 0.00868206 0.0 
0.3604 0.0468383 0.0 
0.0714135 -0.0187619 0.0 
0.705977 0.0893939 0.0 
0.204672 -0.0266328 0.0 
0 0 0.0 
0.113044 0.00566218 0.0 
0.49096 0.000328456 0.0 
0.14577 -0.0139146 0.0 
0.94514 0.139395 0.0 
0.0762038 -0.00907184 0.0 
0.170422 0.022081 0.0 
0.075323 -0.0132821 0.0 
0.095776 0.0114236 0.0 
0.572121 0.171945 0.0 
0.0251921 0.00276892 0.0 
0.756463 -0.0282626 0.0 
0.257505 -0.0181091 0.0 
0 0 0.0 
0 0 0.0 
0.132133 -0.0199217 0.0 
0 0 0.0 
0.0866324 -0.00486223 0.0 
0 0 0.0 
1.06162 0.120981 0.0 
0.00191374 -0.000329571 0.0 
0 0 0.0 
0 0 0.0 
0.00662034 -0.000902939 0.0 
0.96151 -0.0325627 0.0 
0.166109 0.00340751 0.0 
-2.33094e-120 -2.35557e-121 0.0 
0.184536 0.0148475 0.0 
0.70536 0.000838692 0.0 
0.153124 0.0160872 0.0 
0.00792774 0.000509874 0.0 
0.124356 -0.00589919 0.0 
0.478563 -0.0127293 0.0 
0.900636 0.334749 0.0 
0 0 0.0 
0.175648 0.0110184 0.0 
0.290832 -0.0184858 0.0 
0.0595687 -0.00170282 0.0 
0.589458 0.0497143 0.0 
0.226064 -0.0167998 0.0 
0.0775861 -0.012223 0.0 
0.010932 -0.00111303 0.0 
0.0695836 0.0029866 0.0 
0.565457 0.0399358 0.0 
0.721187 -0.0435405 0.0 
1.01215 -0.00156799 0.0 
0 0 0.0 
0 0 0.0 
0 0 0.0 
0.221652 0.0143215 0.0 
0.0062469 -0.00109312 0.0 
0.143456 -0.00538118 0.0 
0.974003 -0.00190524 0.0 
0 0 0.0 
-1.0639e-141 1.04315e-142 0.0 
0.894464 -0.0618607 0.0 
0.0281237 -0.00141207 0.0 
0.0108989 0.00118032 0.0 
0.914993 0.00615405 0.0 
0.839481 0.000241449 0.0 
0.0115004 -0.00165654 0.0 
0.0878228 -0.00846456 0.0 
0.233384 0.0481203 0.0 
0.0285133 -0.00583078 0.0 
0.14255 -0.0151346 0.0 
0 0 0.0 
0.00732734 -0.00327822 0.0 
0 0 0.0 
0.989846 -0.035254 0.0 
0.712638 0.227406 0.0 
0.201927 0.023818 0.0 
0 0 0.0 
0.815063 0.364655 0.0 
0.10239 0.00338878 0.0 
1.00952 -0.000626679 0.0 
0.235407 0.0245559 0.0 
0.0583498 0.00318305 0.0 
0.298627 0.056764 0.0 
0.00423777 -0.000531293 0.0 
0.0705614 -0.00859975 0.0 
0.54275 0.0404704 0.0 
0.972638 -0.179165 0.0 
0.86443 0.136078 0.0 
1.05038 -0.0226146 0.0 
0.0580969 -0.00988667 0.0 
0.00855422 0.00113101 0.0 
1.02563 0.0101652 0.0 
2.24881e-234 -2.06314e-235 0.0 
0.986198 0.288466 0.0 
0.350478 -0.103322 0.0 
0.997501 -0.0107152 0.0 
0.855319 -0.0927744 0.0 
0.414163 0.0247801 0.0 
0.40433 0.0305924 0.0 
0.325718 -0.00910197 0.0 
0.0268609 -0.00266033 0.0 
6.71783e-06 7.8752e-08 0.0 
0.134922 -0.0178386 0.0 
0.581678 -0.0106664 0.0 
0.443918 0.0253562 0.0 
0.990871 0.197602 0.0 
0.124559 -0.00816377 0.0 
0.0143572 -0.00158409 0.0 
0.0132414 0.000933603 0.0 
0.87565 0.010969 0.0 
1.63647e-15 7.48371e-16 0.0 
0.780253 0.338146 0.0 
0 0 0.0 
0.494341 0.00906533 0.0 
1.00266 0 0.0 
0.876559 -0.226278 0.0 
0 0 0.0 
0.015074 -0.00153236 0.0 
0.517321 0.172974 0.0 
0.0539124 -0.000656523 0.0 
0.0707794 0.0113019 0.0 
0.920902 0.322563 0.0 
0.283035 -0.0198355 0.0 
0.0712158 -0.00783491 0.0 
0.472513 -0.439931 0.0 
0.000285416 -2.67842e-05 0.0 
0.932736 0.104631 0.0 
0.407797 0.028876 0.0 
0.427217 0.0481925 0.0 
0.358614 -0.0196722 0.0 
1.08419 0.165429 0.0 
0.00248618 -0.000561111 0.0 
0 0 0.0 
0.601396 -0.166508 0.0 
0.346634 0.000380405 0.0 
0 0 0.0 
0.118455 -0.0108679 0.0 
0.0394334 0.000409818 0.0 
1.01135 0.000173527 0.0 
0.187389 0.0163302 0.0 
0.146614 -0.00129831 0.0 
0.164463 -0.0429663 0.0 
0.0160846 0.000875912 0.0 
0.0518445 -0.0126455 0.0 
0.773386 0.0332904 0.0 
0.762631 -0.433828 0.0 
0.00170322 -0.00021958 0.0 
0.00629169 0.000531733 0.0 
0.608495 -0.190389 0.0 
1.51269e-05 9.33421e-07 0.0 
0.576389 -0.0116862 0.0 
0.150381 -0.0122625 0.0 
0 0 0.0 
0 0 0.0 
0.24471 -0.00300411 0.0 
0.225523 0.00581937 0.0 
0.934927 0.178374 0.0 
0.746606 0.353195 0.0 
1.00948 -0.00135058 0.0 
0 0 0.0 
0.038664 0.000290346 0.0 
0.0148867 0.000729089 0.0 
0.07012 0.00406063 0.0 
0.18464 0.0196395 0.0 
0.906915 0.11424 0.0 
1.0127 -0.00124668 0.0 
0.900169 -0.0497267 0.0 
0.0245637 -0.00150953 0.0 
0 0 0.0 
0.488512 -0.00614752 0.0 
0.846435 -0.36889 0.0 
0.0126781 -0.00137493 0.0 
0 0 0.0 
1.05395 -0.175456 0.0 
1.02786 -0.00650664 0.0 
1.00865 0.000785937 0.0 
0 0 0.0 
0 0 0.0 
0.991322 0.284679 0.0 
0.131308 0.00431922 0.0 
0.611284 0.321188 0.0 
2.60447e-05 -5.24734e-07 0.0 
0.00132401 -0.000394423 0.0 
0.840409 0.270321 0.0 
0.101616 0.00215036 0.0 
0.374802 -0.0207622 0.0 
0.334133 0.0287576 0.0 
1.09949 0.015813 0.0 
0.551611 0.0147622 0.0 
0.674371 0.292379 0.0 
0 0 0.0 
0 0 0.0 
0.157332 0.0268842 0.0 
1.00278 -0.00627314 0.0 
0.0638278 -0.00208616 0.0 
0.672145 -0.0417462 0.0 
-3.616e-153 -1.16185e-153 0.0 
0 0 0.0 
0 0 0.0 
0.419943 0.00646001 0.0 
1.02941 0.0449088 0.0 
0.886105 0.0161392 0.0 
0.496906 0.136406 0.0 
0 0 0.0 
0.662583 0.371591 0.0 
0.0113383 0.000942677 0.0 
1.03553 0.105906 0.0 
0.00883639 0.000317976 0.0 
0 0 0.0 
0.740924 0.327401 0.0 
0.00447033 -0.000868913 0.0 
0.549005 0.296557 0.0 
0.193231 0.00783482 0.0 
0.119758 0.0131375 0.0 
0.541844 -0.344199 0.0 
0.259572 0.00176415 0.0 
1.01285 0.00155033 0.0 
0.997343 0.278282 0.0 
0 0 0.0 
0.30592 0.00399215 0.0 
0 0 0.0 
1.01374 -0.00277288 0.0 
0.022287 -0.00215959 0.0 
0.190447 0.0142074 0.0 
0.999567 0.00235619 0.0 
0.998123 -0.00363633 0.0 
0.299919 -0.00288981 0.0 
0 0 0.0 
0.020275 -0.0423563 0.0 
0.00517108 -0.000492979 0.0 
0.421889 -0.0125877 0.0 
0.0459864 -0.0037295 0.0 
0.735864 0.00487395 0.0 
0 0 0.0 
0.492479 -0.0484841 0.0 
0 0 0.0 
0.276719 0.00251553 0.0 
0 0 0.0 
0.176246 0.00618731 0.0 
0.983732 0.0951713 0.0 
0.13052 0.01733 0.0 
0.999908 0.000977797 0.0 
0.848476 0.175267 0.0 
0 0 0.0 
0.512998 -0.0967243 0.0 
0.186836 -0.0154469 0.0 
0.0577075 0.000671309 0.0 
0.722588 0.260325 0.0 
0.591393 -0.321077 0.0 
0.813957 0.325015 0.0 
0.00250818 -0.000415922 0.0 
0.0194462 -0.00154713 0.0 
0.0122611 -0.00118232 0.0 
0.771111 0.0995179 0.0 
0.0423189 0.00199026 0.0 
0 0 0.0 
0.0550256 -0.00618285 0.0 
0.817313 -0.14431 0.0 
0 0 0.0 
0.849826 0.353798 0.0 
0.884613 0.345361 0.0 
0 0 0.0 
0 0 0.0 
0.00510835 -0.0004925 0.0 
0 0 0.0 
0.00658597 -0.00100098 0.0 
1.01133 -0.00273255 0.0 
0.110037 0.016039 0.0 
0.311946 -0.00970586 0.0 
0.740656 0.0582302 0.0 
0.984125 -0.0605499 0.0 
0.379386 -0.00366604 0.0 
0.677395 0.221959 0.0 
0.923233 -0.198585 0.0 
0.813251 -0.150993 0.0 
0 0 0.0 
1.01743 -0.00217383 0.0 
0.102667 -0.00914426 0.0 
0.107991 -0.00988692 0.0 
0.0986529 0.00407186 0.0 
0 0 0.0 
0.535967 -0.00914112 0.0 
0.0198152 0.00106211 0.0 
0.338286 0.0666884 0.0 
0.62746 0.00697009 0.0 
0.906628 0.210919 0.0 
0.816836 -0.435587 0.0 
0.11522 -0.0227341 0.0 
0.0561908 0.0461515 0.0 
0.0048513 0.000637103 0.0 
0.0390015 -0.000153863 0.0 
0.364391 0.0056351 0.0 
0.266352 -0.0081471 0.0 
0.96017 0.0445942 0.0 
0.00521495 -0.000618104 0.0 
0.90563 0.0963339 0.0 
0.00869583 -0.000983304 0.0 
0.972527 -0.0471822 0.0 
1.00863 -0.000197198 0.0 
0.744764 0.148076 0.0 
0.482305 -0.0420324 0.0 
0 0 0.0 
0.849303 0.315931 0.0 
0 0 0.0 
0.93278 0.00284186 0.0 
0.871143 0.00305692 0.0 
0.493221 -0.0804932 0.0 
0.765809 0.279376 0.0 
0.0865275 0.00441363 0.0 
0.71041 0.253062 0.0 
0.990697 -0.311636 0.0 
0 0 0.0 
0.301941 0.01238 0.0 
0 0 0.0 
1.06974 -0.225569 0.0 
0.798104 0.111674 0.0 
0 0 0.0 
0 0 0.0 
0.748544 0.224376 0.0 
1.01685 0.192228 0.0 
1.00473 0 0.0 
0 0 0.0 
0.680205 0.147775 0.0 
0.647438 0.0728138 0.0 
1.0488 0.230181 0.0 
0.347292 0.0169926 0.0 
0.0211718 0.00125819 0.0 
0.0499699 0.0214219 0.0 
0.708823 0.176251 0.0 
0.00994601 0.000700006 0.0 
0.200472 -0.0192125 0.0 
0.463691 -0.437975 0.0 
0 0 0.0 
1.04568 0.00596961 0.0 
0 0 0.0 
0.815796 0.025651 0.0 
1 0 0.0 
0.569831 0.0492614 0.0 
0.9732 -0.177064 0.0 
4.27987e-05 6.43549e-06 0.0 
0.0258396 0.00093244 0.0 
0.475276 -0.0756204 0.0 
0 0 0.0 
1.12038 0.123035 0.0 
1.02359 -0.219198 0.0 
0.76405 -0.329306 0.0 
0 0 0.0 
0.809074 -0.321906 0.0 
0.659359 -0.0062489 0.0 
0.834189 -0.365255 0.0 
3.98221e-201 2.18815e-201 0.0 
0.950306 -0.0147148 0.0 
1.0429 -0.0160478 0.0 
0.115487 0.00268166 0.0 
0.842139 0.0781848 0.0 
0.882747 -0.390602 0.0 
0.992225 -0.323022 0.0 
0 0 0.0 
0.00969138 0.000457601 0.0 
0.405778 0.207556 0.0 
0.673455 0.0689102 0.0 
0 0 0.0 
0.88538 -0.0505791 0.0 
0 0 0.0 
0.873081 -0.400446 0.0 
0.196146 -0.00378963 0.0 
1.00176 0.0113402 0.0 
0.634837 -0.101992 0.0 
0.00587609 0.000366071 0.0 
0.585966 0.0131931 0.0 
0.0437019 -0.00455035 0.0 
0 0 0.0 
0.133642 0.00323317 0.0 
0.322684 0.0114428 0.0 
0.120175 -0.0101423 0.0 
0.107749 0.00457996 0.0 
0.348249 0.00627018 0.0 
1.01367 -0.000980261 0.0 
0 0 0.0 
0.138368 0.00444027 0.0 
0 0 0.0 
0.0231905 -0.00252316 0.0 
0 0 0.0 
0.386752 0.0352519 0.0 
0.885041 -0.223987 0.0 
0.443383 -0.0357811 0.0 
1.08391 0.204802 0.0 
0 0 0.0 
0.0202708 0.00105864 0.0 
1.01257 0.000223059 0.0 
0.109928 -0.00247585 0.0 
0.456592 -0.29526 0.0 
0 0 0.0 
0.763979 0.0802596 0.0 
1.00259 0 0.0 
0 0 0.0 
0.680043 -0.0772899 0.0 
0.779403 0.00217136 0.0 
1.05729e-53 8.75786e-55 0.0 
1.0049 -0.0482996 0.0 
0.00548722 0.00100891 0.0 
0 0 0.0 
0 0 0.0 
0 0 0.0 
0.934765 0.128711 0.0 
0.719456 0.12668 0.0 
0.324234 0.0896127 0.0 
0.873722 0.33658 0.0 
0.00958701 0.000416715 0.0 
0.773907 0.122712 0.0 
0 0 0.0 
0 0 0.0 
0 0 0.0 
0.793622 0.212749 0.0 
0.937947 0.290938 0.0 
0.135763 -0.0135803 0.0 
0.00950682 -0.000185804 0.0 
0.743189 0.109572 0.0 
0.913157 0.329954 0.0 
0.885275 0.321934 0.0 
1.00115 0.00117927 0.0 
0.95048 -0.22531 0.0 
1 0 0.0 
0.87604 0.346753 0.0 
0.108088 -0.0112766 0.0 
0 0 0.0 
0.667991 0.0192944 0.0 
0.585113 0.301364 0.0 
0 0 0.0 
0.0509899 0.00208045 0.0 
0.248389 0.00632138 0.0 
0.0227626 0.00102001 0.0 
0.679374 0.0613788 0.0 
0.01591 -0.00237132 0.0 
0.0198311 0.00111226 0.0 
0.639706 0.0531517 0.0 
0.814186 -0.0931515 0.0 
0.661348 -0.0527269 0.0 
0.554799 0.00640074 0.0 
0 0 0.0 
0.0127602 -0.0013987 0.0 
0.5967 0.341239 0.0 
0.0123491 -0.000202485 0.0 
1.00233 -0.000842142 0.0 
1.00139 0.00300179 0.0 
0.181523 0.00325573 0.0 
0 0 0.0 
0.00905427 0.00101707 0.0 
0 0 0.0 
1.01375 0.00301332 0.0 
0.000365387 1.13623e-05 0.0 
1.04193 -0.238237 0.0 
1.06575 -0.0373111 0.0 
1.05864 0.151714 0.0 
0.817296 -0.0194759 0.0 
1.05495 -0.0185814 0.0 
0.0671507 0.0241904 0.0 
0.622804 0.195629 0.0 
1.00151 0 0.0 
0.0086872 0.000405198 0.0 
0.352634 -0.00856891 0.0 
1.01174 -0.072739 0.0 
1.00472 -0.000448814 0.0 
0.00641232 -0.000668566 0.0 
0.653766 0.0232434 0.0 
0.0674559 -0.00795428 0.0 
0.027424 0.00146503 0.0 
0.527655 0.0178436 0.0 
0.0935869 -0.00827333 0.0 
0.0387092 0.000678016 0.0 
4.34884e-05 -3.8728e-06 0.0 
0.984714 -0.0472031 0.0 
1.01729 0.274121 0.0 
0.262012 0.0141331 0.0 
0.343894 0.0614826 0.0 
1.00103 0.00321485 0.0 
0.00836601 0.000515413 0.0 
0 0 0.0 
0.268548 0.00297132 0.0 
0.506038 0.0746891 0.0 
0 0 0.0 
0.141916 0.00317487 0.0 
0.668096 -0.124556 0.0 
1.00919 -7.80691e-05 0.0 
0.00727563 -0.000765991 0.0 
0.0439438 0.00255119 0.0 
0.846804 0.338738 0.0 
0.617207 0.0165226 0.0 
0.179961 -0.00507035 0.0 
1.01194 0.000784846 0.0 
0.74332 0.0154282 0.0 
0.757343 -0.0988014 0.0 
0 0 0.0 
1.03404 0.137059 0.0 
0.350493 0.0113398 0.0 
0 0 0.0 
0.976013 -0.128965 0.0 
0 0 0.0 
1.0586 0.00123047 0.0 
0 0 0.0 
0.901622 0.33723 0.0 
0.0046251 -0.00131733 0.0 
0 0 0.0 
0 0 0.0 
0.290826 0.0925927 0.0 
0.0447718 -0.0016042 0.0 
0.0725264 0.00413563 0.0 
0.998147 -0.0331384 0.0 
0.027628 0.00172512 0.0 
0.279459 0.0218494 0.0 
0.443236 0.002383 0.0 
0.820184 0.301848 0.0 
0.218378 -0.00305031 0.0 
0.463056 -0.0318654 0.0 
0.629607 0.117975 0.0 
0.533903 -0.00193495 0.0 
0 0 0.0 
0.0719266 0.00805607 0.0 
0.807497 -0.0718787 0.0 
2.23293e-05 -2.46989e-06 0.0 
0.993653 0.0594582 0.0 
0.0194647 0.00141167 0.0 
0.260342 0.0228744 0.0 
0.0149247 0.00111804 0.0 
1.06184 -0.0502817 0.0 
0.19509 0.0422301 0.0 
0.304052 -0.00874842 0.0 
0 0 0.0 
0.36574 0.00343881 0.0 
0 0 0.0 
1.00681 0 0.0 
0.0282437 0.0013468 0.0 
0.620549 0.0432146 0.0 
0 0 0.0 
0.253493 0.0305232 0.0 
0.954954 -0.2046 0.0 
1.05069 0.00206058 0.0 
0.116622 -0.00477991 0.0 
5.52994e-234 -1.53939e-235 0.0 
0.633909 0.0765851 0.0 
0.258037 0.0221688 0.0 
0.230821 0.00348163 0.0 
0.826159 -0.0473686 0.0 
1.03632 0.0511074 0.0 
0.581947 0.000294111 0.0 
0 0 0.0 
1.0055 0.267273 0.0 
1.07486 0.144242 0.0 
0.960362 0.287616 0.0 
0.587854 -0.123865 0.0 
0.835735 0.258805 0.0 
0 0 0.0 
0.813998 -0.0272315 0.0 
1.02105 -0.147056 0.0 
0.66472 -0.0650714 0.0 
0.867967 -0.187807 0.0 
1.01414 0.255428 0.0 
0 0 0.0 
0 0 0.0 
0.246181 0.0688416 0.0 
0.583084 0.0116407 0.0 
0.304257 0.0121558 0.0 
0.555931 -0.0986927 0.0 
0.999791 0.003288 0.0 
0.299182 0.0164321 0.0 
0.705115 -0.0587485 0.0 
0.62762 0.35889 0.0 
0.241641 0.000627179 0.0 
0.538126 -0.0502884 0.0 
1 0 0.0 
0.0821719 0.00859019 0.0 
0.78751 0.261753 0.0 
0.254239 0.0115932 0.0 
0.447326 -0.00800212 0.0 
1.07903 -0.00124137 0.0 
0.959855 0.0803865 0.0 
1.22514e-08 -8.66177e-10 0.0 
0.866231 -0.162429 0.0 
0.92296 0.256279 0.0 
0.30218 0.00474597 0.0 
1.00759 0 0.0 
0.631356 0.216953 0.0 
1.01227 -0.00150054 0.0 
0.776925 -0.0613907 0.0 
0.754912 0.0930114 0.0 
0.79083 -0.156291 0.0 
0.277663 -0.0039079 0.0 
0 0 0.0 
0 0 0.0 
1.0093 0 0.0 
0.294748 0.00324236 0.0 
0 0 0.0 
0.257009 0.00543417 0.0 
0.0955668 0.043702 0.0 
0.29822 0.0867044 0.0 
0.357803 0.0107334 0.0 
2.55843e-09 -3.26443e-11 0.0 
0 0 0.0 
0 0 0.0 
0.655004 -0.0183605 0.0 
0.383527 0.0449531 0.0 
0 0 0.0 
1.00001 0.000280231 0.0 
1.00861 -0.000520842 0.0 
0.225493 -7.36364e-05 0.0 
0.101071 0.00553228 0.0 
0.0317907 -0.00274191 0.0 
0.266542 0.0245103 0.0 
0.106398 0.00558789 0.0 
0.181333 0.0102685 0.0 
0.970521 0.163815 0.0 
0.89065 -0.207825 0.0 
0.968517 -0.0475238 0.0 
0.0198663 0.000542283 0.0 
1.01311 -0.00366456 0.0 
0.831382 -0.0389795 0.0 
0 0 0.0 
0 0 0.0 
0.898185 0.187349 0.0 
7.47095e-237 -2.07971e-238 0.0 
1.10705 0.142308 0.0 
0.539299 -0.0107886 0.0 
0.791574 0.167832 0.0 
0.0123089 -0.000801961 0.0 
0.0686977 0.00918306 0.0 
0.400179 0.177203 0.0 
0.378061 -0.0303902 0.0 
0.00137895 -0.000140834 0.0 
0.218273 0.00131506 0.0 
0 0 0.0 
0 0 0.0 
0.0307433 0.000205059 0.0 
0.930965 0.0956457 0.0 
0 0 0.0 
0.498045 -0.0392983 0.0 
0 0 0.0 
0.00696497 -0.000766758 0.0 
0.999865 -0.239638 0.0 
0.0325284 -0.00912001 0.0 
0.42853 -0.00135744 0.0 
1.00961 -0.000562588 0.0 
0.851768 0.0367549 0.0 
1.01065 -0.00591685 0.0 
0.999629 -0.000248555 0.0 
0.11342 0.0182712 0.0 
1.06771 -0.146346 0.0 
0.871082 0.0121015 0.0 
0.335152 -0.0105326 0.0 
0.0111768 0.000213215 0.0 
0.405184 0.0223907 0.0 
1.01063 -0.000679811 0.0 
1.07592 0.0503634 0.0 
1.00002 0.000116461 0.0 
0.021423 0.000492503 0.0 
0.0359274 -0.00276394 0.0 
0.43099 -0.0153212 0.0 
0.998407 0.000151405 0.0 
0.0218319 0.000106671 0.0 
0.901923 0.10649 0.0 
0.925222 0.0636198 0.0 
1.06607 -0.0349496 0.0 
0.436851 -0.00079456 0.0 
0.0137028 -0.00159794 0.0 
0 0 0.0 
0.862946 -0.135581 0.0 
1 0 0.0 
0.00724447 0.000639385 0.0 
0.418767 -0.0112455 0.0 
0 0 0.0 
0 0 0.0 
0.346548 -0.0111285 0.0 
0.736684 0.00484354 0.0 
0.817693 0.0583089 0.0 
0.0101921 0.000934489 0.0 
1 0 0.0 
0.81545 -0.0925817 0.0 
0 0 0.0 
0 0 0.0 
0 0 0.0 
0.649505 0.0481163 0.0 
0 0 0.0 
0.228542 0.0118455 0.0 
0.486588 -0.0229567 0.0 
0.0656831 -0.000929993 0.0 
0.99726 0.0229131 0.0 
0 0 0.0 
0.997232 0.00592315 0.0 
0.0898615 0.00227013 0.0 
0.517802 -0.023457 0.0 
0.652282 0.303054 0.0 
0.178363 -0.0112328 0.0 
0 0 0.0 
0.97611 0.0103891 0.0 
0.157625 0.00815073 0.0 
0.53791 0.00788836 0.0 
0.607181 -0.0273882 0.0 
1.01074 -0.286947 0.0 
0.0929194 -0.162018 0.0 
0 0 0.0 
0.819548 0.0940144 0.0 
0.0086169 -0.000993356 0.0 
0.97568 -0.0872061 0.0 
0 0 0.0 
1.00035 0.000421195 0.0 
0 0 0.0 
0.181655 0.00504921 0.0 
0 0 0.0 
0.888508 -0.012695 0.0 
0.978138 -0.34009 0.0 
0.259564 0.0440036 0.0 
0.581209 0.00248609 0.0 
0 0 0.0 
0 0 0.0 
0.935589 -0.329755 0.0 
0.866721 -0.0961128 0.0 
0.0311988 -0.00203998 0.0 
0.0167188 0.00154925 0.0 
0.945725 -0.0459076 0.0 
0.527437 -0.00367564 0.0 
0.700923 0.0163411 0.0 
0 0 0.0 
1.0011 0.00238101 0.0 
0.515125 0.0183342 0.0 
0 0 0.0 
0 0 0.0 
0 0 0.0 
1.0067 0.19669 0.0 
0.9689 0.202556 0.0 
0.581466 0.0295296 0.0 
1.09747 0.0461189 0.0 
0.000101842 -8.76107e-06 0.0 
0.00297205 -0.00037505 0.0 
0.649479 -0.00203243 0.0 
0.427487 0.20541 0.0 
0.0073377 -0.00088674 0.0 
0.854397 -0.207346 0.0 
0 0 0.0 
0 0 0.0 
1.12204 0.0746231 0.0 
1.00075 0.00949182 0.0 
0.591594 -0.00203468 0.0 
0 0 0.0 
0.446535 0.0483483 0.0 