<VTKFile type="UnstructuredGrid" version="0.1" byte_order="LittleEndian">
  <UnstructuredGrid>
    <Piece NumberOfPoints="14158" NumberOfCells="28164">
      <Points>
        <DataArray type = "Float64" NumberOfComponents="3" format="ascii">
0 0 0.0 
14 0 0.0 
14 8 0.0 
0 8 0.0 
4.99511 4.03019 0.0 
4.69233 4.0533 0.0 
5.15553 4.02606 0.0 
5.03475 4.02963 0.0 
4.55949 3.97764 0.0 
4.51112 3.96621 0.0 
5.0861 3.99142 0.0 
4.6932 4.07079 0.0 
4.76917 4.04865 0.0 
4.03237 3.98544 0.0 
4.76716 4.01493 0.0 
4.95014 4.02248 0.0 
5.81449 3.96504 0.0 
4.01347 3.94819 0.0 
4.01131 4.002 0.0 
4.08543 3.93892 0.0 
4.50208 3.96138 0.0 
8.40909 0 0.0 
4.38606 4.09468 0.0 
5.69791 4.04074 0.0 
4.63816 3.97975 0.0 
3.96103 3.91094 0.0 
4.00249 4.02948 0.0 
4.5255 3.86304 0.0 
4.16728 3.96978 0.0 
4.16498 3.91961 0.0 
4.70007 4.0613 0.0 
4.61933 4.05383 0.0 
4.06288 4.03688 0.0 
4.33109 3.95575 0.0 
3.99828 4.06973 0.0 
4.4047 3.95365 0.0 
4.48241 3.94457 0.0 
4.8464 4.00851 0.0 
4.63151 4.06669 0.0 
4.1394 3.93565 0.0 
4.87337 4.04769 0.0 
4.59891 4.05544 0.0 
4.09422 4.06655 0.0 
13.4391 3.34883 0.0 
4.02004 4.02183 0.0 
4.41659 3.98967 0.0 
4.18875 3.93918 0.0 
4.51194 4.04817 0.0 
4.38934 3.96903 0.0 
4.82894 4.01099 0.0 
4.64458 3.95384 0.0 
4.6638 3.97703 0.0 
4.5575 3.96922 0.0 
4.40652 3.96985 0.0 
4.05789 4.06544 0.0 
4.10075 4.03591 0.0 
4.89579 4.02875 0.0 
5.64954 4.05275 0.0 
4.14536 3.98684 0.0 
4.90274 4.03416 0.0 
4.09973 4.06883 0.0 
4.36536 4.06401 0.0 
4.0631 3.94627 0.0 
4.42393 4.06903 0.0 
4.09324 4.07263 0.0 
4.48463 4.0392 0.0 
4.46957 4.09883 0.0 
4.49047 4.05169 0.0 
4.50667 3.96198 0.0 
4.54945 4.07037 0.0 
5.07377 3.98495 0.0 
4.06915 4.04534 0.0 
5.01575 3.97372 0.0 
4.8773 3.98183 0.0 
4.08538 4.02507 0.0 
4.26351 4.07002 0.0 
4.92927 4.0295 0.0 
10.1755 4.65995 0.0 
3.99368 4.01426 0.0 
4.01968 3.92737 0.0 
4.70506 4.03528 0.0 
4.09176 4.05181 0.0 
4.89938 3.97685 0.0 
4.94586 4.02527 0.0 
3.99135 4.001 0.0 
5.03044 4.01281 0.0 
4.61617 4.06133 0.0 
4.43671 4.00388 0.0 
4.77493 3.9863 0.0 
5.00489 4.02516 0.0 
4.01763 3.98184 0.0 
4.48341 4.0268 0.0 
4.09424 4.05815 0.0 
4.70675 4.03295 0.0 
3.99988 3.98708 0.0 
3.96551 4.23654 0.0 
4.21788 3.91237 0.0 
4.17207 3.96417 0.0 
4.08464 3.97274 0.0 
4.64754 4.06017 0.0 
4.17558 4.06164 0.0 
4.11902 4.05478 0.0 
4.01761 3.98555 0.0 
4.03056 4.00348 0.0 
4.84276 4.00892 0.0 
5.05167 3.98934 0.0 
4.67123 4.05115 0.0 
4.11754 3.96612 0.0 
4.34301 4.06881 0.0 
4.96392 4.01426 0.0 
4.63142 4.05339 0.0 
4.40128 4.1272 0.0 
5.39361 3.85246 0.0 
4.42529 4.05205 0.0 
4.44236 4.07987 0.0 
4.57415 4.05845 0.0 
4.64087 3.97125 0.0 
4.07034 3.97519 0.0 
4.432 4.04803 0.0 
4.39806 4.07881 0.0 
4.22701 4.06421 0.0 
4.30088 4.08049 0.0 
4.17786 4.07881 0.0 
4.85295 4.03748 0.0 
4.70144 3.9843 0.0 
5.04607 4.02448 0.0 
4.1628 3.94775 0.0 
4.63833 3.96699 0.0 
5.09798 4.0273 0.0 
4.01778 3.97712 0.0 
4.08831 4.06631 0.0 
3.89089 4.04898 0.0 
5.10128 4.03936 0.0 
4.98033 4.02027 0.0 
4.5104 4.08178 0.0 
4.41792 4.13014 0.0 
4.96925 4.01607 0.0 
4.02846 4.0287 0.0 
4.32012 3.95203 0.0 
4.40707 4.07662 0.0 
4.48133 3.98582 0.0 
4.11906 4.05011 0.0 
4.21613 3.90423 0.0 
4.50041 4.04809 0.0 
4.31729 4.06383 0.0 
4.52576 4.0968 0.0 
4.23106 4.06386 0.0 
0 2.35318 0.0 
3.95004 3.97529 0.0 
3.97234 4.03785 0.0 
4.77294 4.03722 0.0 
4.07686 3.98202 0.0 
4.18416 3.91428 0.0 
5.00576 3.98835 0.0 
5.07857 4.01054 0.0 
4.40059 4.06869 0.0 
4.17071 3.92446 0.0 
4.83396 3.98148 0.0 
4.83418 4.14692 0.0 
4.98971 4.00888 0.0 
4.12861 3.96564 0.0 
4.33994 4.05525 0.0 
4.99603 3.97729 0.0 
4.45339 4.06653 0.0 
4.79728 4.05086 0.0 
5.11613 3.98771 0.0 
4.06005 4.03579 0.0 
4.9351 4.02757 0.0 
4.14377 3.94805 0.0 
4.05664 3.81012 0.0 
4.79976 4.03144 0.0 
4.95309 4.03889 0.0 
4.0089 3.92893 0.0 
4.95901 3.98972 0.0 
4.84364 4.01782 0.0 
4.10324 3.94929 0.0 
4.09541 3.97035 0.0 
4.24915 4.05618 0.0 
4.67911 4.05224 0.0 
4.27153 4.06746 0.0 
4.86277 4.01565 0.0 
4.83373 3.98925 0.0 
4.40074 4.07728 0.0 
4.81338 3.97625 0.0 
4.26747 4.03967 0.0 
4.89669 4.00829 0.0 
4.9912 4.02804 0.0 
4.41966 4.07046 0.0 
3.99002 4.07043 0.0 
5.07235 3.99531 0.0 
5.65552 4.03613 0.0 
4.08307 3.92836 0.0 
4.30478 4.07264 0.0 
4.98997 4.02393 0.0 
4.89065 3.98712 0.0 
4.92064 4.00504 0.0 
5.01943 4.02273 0.0 
3.96199 4.03038 0.0 
5.04864 4.04382 0.0 
4.82238 4.00602 0.0 
4.01486 3.98348 0.0 
4.25535 3.9662 0.0 
4.07918 3.97615 0.0 
4.07404 3.93314 0.0 
4.43195 4.08715 0.0 
4.18813 4.09432 0.0 
4.89685 4.02649 0.0 
4.78373 4.0392 0.0 
4.88438 4.03747 0.0 
4.6754 4.07787 0.0 
5.03899 4.01992 0.0 
4.94412 4.00374 0.0 
4.21043 4.06738 0.0 
5.03784 3.97703 0.0 
4.01971 4.06736 0.0 
5.03247 3.98297 0.0 
3.94108 4.15328 0.0 
4.4027 4.06153 0.0 
4.06417 3.99462 0.0 
4.84144 4.03199 0.0 
5.05402 4.03163 0.0 
3.9731 4.09746 0.0 
4.69844 3.99365 0.0 
4.16902 3.98151 0.0 
5.09724 4.01669 0.0 
4.44834 4.06807 0.0 
4.11763 4.04808 0.0 
11.5596 3.82428 0.0 
4.90133 4.0315 0.0 
4.66242 4.0616 0.0 
5.01496 3.9966 0.0 
4.24923 3.98504 0.0 
4.213 4.06906 0.0 
10.2707 7.79099 0.0 
5.0636 3.98872 0.0 
4.29259 4.04824 0.0 
4.61083 3.96719 0.0 
3.98273 4.00621 0.0 
4.38142 4.07552 0.0 
4.01925 4.05221 0.0 
4.98107 3.97981 0.0 
4.52872 3.97242 0.0 
4.78353 3.9981 0.0 
5.03687 3.96236 0.0 
5.10865 4.0171 0.0 
5.03617 4.00712 0.0 
4.05668 3.97677 0.0 
4.98218 4.02738 0.0 
4.76608 4.05421 0.0 
4.63837 4.04027 0.0 
4.27406 4.08825 0.0 
3.95046 4.00001 0.0 
4.41092 4.07189 0.0 
5.8978 4.23673 0.0 
4.98317 3.98354 0.0 
4.63488 4.0788 0.0 
4.04371 4.02248 0.0 
4.07228 3.97224 0.0 
5.15402 3.98655 0.0 
4.74307 4.05359 0.0 
4.31236 4.0737 0.0 
4.47631 4.05795 0.0 
4.21387 4.06366 0.0 
4.89858 4.00994 0.0 
4.08088 3.9951 0.0 
10.2659 7.46655 0.0 
4.00273 4.05728 0.0 
3.99448 4.02842 0.0 
3.9854 3.99493 0.0 
4.77462 3.98845 0.0 
4.72842 3.98652 0.0 
4.55455 4.00001 0.0 
4.7923 4.0148 0.0 
4.71378 3.975 0.0 
4.04073 4.00277 0.0 
4.98463 4.01475 0.0 
4.88474 4.04745 0.0 
4.1236 3.96443 0.0 
5.00134 4.00081 0.0 
4.25133 3.97856 0.0 
5.02574 4.00669 0.0 
4.64473 3.98079 0.0 
5.00388 4.02124 0.0 
3.9197 4.22243 0.0 
4.82565 3.99037 0.0 
4.79283 3.98077 0.0 
5.01224 3.97834 0.0 
4.02873 4.02055 0.0 
4.33141 4.07025 0.0 
4.7888 3.99977 0.0 
4.76175 4.05783 0.0 
4.41971 4.06751 0.0 
4.80864 4.00148 0.0 
5.66891 3.82567 0.0 
4.80944 3.99032 0.0 
4.59541 3.96295 0.0 
4.46052 4.06097 0.0 
4.84539 4.04074 0.0 
4.00748 4.00932 0.0 
4.66723 4.06827 0.0 
4.40159 3.88603 0.0 
4.22385 4.06304 0.0 
4.78808 4.00284 0.0 
4.72322 3.87045 0.0 
4.5177 3.95928 0.0 
4.78251 4.00829 0.0 
4.49787 4.0635 0.0 
4.69638 4.04621 0.0 
4.52753 3.96538 0.0 
4.30628 4.07155 0.0 
4.28115 4.08293 0.0 
4.25325 4.08014 0.0 
4.21298 3.96686 0.0 
4.77953 4.04344 0.0 
4.79039 4.04838 0.0 
4.98174 4.03773 0.0 
4.42242 4.07153 0.0 
4.43794 3.97175 0.0 
4.29689 3.94745 0.0 
8.95287 7.51699 0.0 
4.2286 3.9679 0.0 
4.1749 4.06937 0.0 
4.6899 4.06341 0.0 
4.8373 4.01686 0.0 
4.74003 3.98499 0.0 
4.00975 4.04675 0.0 
4.46884 3.97129 0.0 
5.11748 4.03535 0.0 
2.67239 0 0.0 
4.43566 4.07646 0.0 
4.94977 3.98771 0.0 
4.8028 3.989 0.0 
4.07801 4.04908 0.0 
4.09729 3.9695 0.0 
4.287 3.96475 0.0 
4.04219 4.00834 0.0 
4.03695 4.06573 0.0 
4.78579 4.04452 0.0 
4.7676 3.98633 0.0 
4.83607 4.02674 0.0 
4.43751 4.0743 0.0 
4.02105 4.04639 0.0 
4.78344 3.97728 0.0 
4.23233 4.101 0.0 
5.93593 4.04672 0.0 
6.15094 4.20217 0.0 
4.16631 3.97196 0.0 
4.20051 4.07495 0.0 
4.41215 4.04996 0.0 
4.55757 4.05812 0.0 
4.95106 3.98503 0.0 
7.60317 2.95265 0.0 
4.65776 4.06114 0.0 
4.18746 4.11017 0.0 
4.71035 4.02722 0.0 
4.58457 3.96721 0.0 
4.113 4.03006 0.0 
8.75684 0.585272 0.0 
4.07543 4.04145 0.0 
4.94671 4.01295 0.0 
4.29615 3.9505 0.0 
4.26129 4.08041 0.0 
4.99347 4.02007 0.0 
4.59618 4.06549 0.0 
4.00749 3.97714 0.0 
4.59611 4.08776 0.0 
4.03283 4.06047 0.0 
4.38814 4.08756 0.0 
3.99543 4.04517 0.0 
4.14162 4.07854 0.0 
4.45988 3.96963 0.0 
4.0277 4.00858 0.0 
4.68699 4.05143 0.0 
4.73292 4.0663 0.0 
4.52997 3.95459 0.0 
4.69442 3.97058 0.0 
3.98172 4.06844 0.0 
4.01341 4.01856 0.0 
4.00854 4.04134 0.0 
4.37097 3.9041 0.0 
4.34359 4.06532 0.0 
4.05517 4.04952 0.0 
4.37761 4.09202 0.0 
4.27873 3.96834 0.0 
5.00162 3.97999 0.0 
4.689 4.06029 0.0 
3.99746 3.98902 0.0 
4.44173 3.97272 0.0 
3.98227 4.04617 0.0 
4.62756 4.06242 0.0 
4.25008 4.04533 0.0 
3.95132 3.92388 0.0 
4.01731 3.97083 0.0 
4.66183 4.06418 0.0 
4.24651 4.05075 0.0 
4.09154 3.93527 0.0 
5.79984 4.03684 0.0 
4.6559 7.60199 0.0 
3.98742 4.01904 0.0 
4.47557 4.07393 0.0 
4.44291 4.03952 0.0 
4.12639 4.05925 0.0 
4.03357 3.99646 0.0 
4.53496 3.96388 0.0 
3.99835 4.02918 0.0 
12.2764 4.67793 0.0 
4.27425 4.13779 0.0 
4.66669 4.07681 0.0 
4.86639 3.97791 0.0 
5.3262 4.0473 0.0 
4.261 4.12081 0.0 
4.45837 4.06433 0.0 
4.68317 3.982 0.0 
3.99623 4.03627 0.0 
4.03277 4.00935 0.0 
4.05133 4.02283 0.0 
4.24115 3.98725 0.0 
4.68228 3.98305 0.0 
4.6081 3.87593 0.0 
3.99336 3.97236 0.0 
4.1755 3.94311 0.0 
5.59915 3.98646 0.0 
4.66774 4.0651 0.0 
4.0781 3.98964 0.0 
4.22361 4.04691 0.0 
5.3283 4.17373 0.0 
4.85987 3.97881 0.0 
7.16723 0 0.0 
5.8622 0.652372 0.0 
4.71184 4.04447 0.0 
4.00652 4.03234 0.0 
4.0583 3.98099 0.0 
4.65765 4.07489 0.0 
4.15109 4.07691 0.0 
4.86752 3.99259 0.0 
4.2037 4.09164 0.0 
4.00427 4.04292 0.0 
4.44029 3.947 0.0 
4.21018 3.96656 0.0 
4.44207 3.99493 0.0 
4.99643 3.98691 0.0 
4.24149 4.05316 0.0 
5.86329 3.89167 0.0 
7.59234 3.94341 0.0 
4.84765 3.97489 0.0 
4.04839 4.01492 0.0 
4.34627 3.98181 0.0 
4.27359 4.07847 0.0 
3.98712 4.04304 0.0 
5.05532 3.96517 0.0 
4.98996 3.97879 0.0 
5.77299 4.0132 0.0 
5.61647 3.89036 0.0 
4.58019 4.05797 0.0 
4.96314 4.00826 0.0 
4.03036 3.97171 0.0 
4.3261 4.06286 0.0 
4.50488 3.97291 0.0 
14 2.6265 0.0 
0 5.51486 0.0 
8.35489 2.54337 0.0 
4.13888 3.985 0.0 
4.00489 3.99798 0.0 
4.45398 4.06074 0.0 
4.25289 4.08703 0.0 
4.04131 3.99766 0.0 
4.30688 4.06702 0.0 
4.75327 3.97221 0.0 
5.03609 3.98885 0.0 
0.712024 5.21358 0.0 
3.9756 4.08504 0.0 
4.037 4.008 0.0 
4.06005 3.96532 0.0 
[...]
<PointData>
  <DataArray type = "Float64" Name="Vitesse" NumberOfComponents="3" format="ascii">
1 0 0.0 
0.999599 0 0.0 
1.00046 0 0.0 
1 0 0.0 
0.10046 -0.017612 0.0 
0.0572538 -0.0060987 0.0 
0.176635 -0.0116385 0.0 
0.113336 -0.0203284 0.0 
0.00734421 0.000600229 0.0 
0.120178 0.00452251 0.0 
0.142739 0.0114933 0.0 
0.233296 -0.0182826 0.0 
0.0773942 -0.00820909 0.0 
-1.55519e-163 3.1483e-164 0.0 
0 0 0.0 
0.0405307 -0.00567841 0.0 
0.479403 0.0027373 0.0 
0.957085 -0.320114 0.0 
0 0 0.0 
1.04255 -0.183771 0.0 
0.179402 0.00572882 0.0 
1.00496 0 0.0 
0.54372 0.00841845 0.0 
0.452048 -0.0137638 0.0 
0.0227322 0.000754385 0.0 
0.910821 -0.164089 0.0 
0.611036 0.343043 0.0 
1.06489 -0.0122861 0.0 
0.000128602 1.62045e-06 0.0 
1.05605 -0.103578 0.0 
0.136773 -0.0122691 0.0 
0.00176118 -0.000109018 0.0 
0 0 0.0 
0.235248 0.00286723 0.0 
0.824794 0.23379 0.0 
0.270538 0.00524947 0.0 
0.410768 0.00824888 0.0 
0 0 0.0 
0.145803 -0.0109511 0.0 
0.930402 -0.0992864 0.0 
0.139608 -0.0148973 0.0 
0.00022155 -1.32896e-05 0.0 
0.818127 0.206221 0.0 
0.999795 -0.000462679 0.0 
8.93273e-05 5.41475e-05 0.0 
0 0 0.0 
0.722877 -0.0434986 0.0 
0 0 0.0 
0.0373952 0.00170466 0.0 
0 0 0.0 
0.310719 0.00985545 0.0 
0.0602513 0.00366926 0.0 
0.101787 0.00449976 0.0 
0.0330226 0.0012081 0.0 
0.937824 0.303756 0.0 
0 0 0.0 
0.0394552 -0.00549557 0.0 
0.499511 -0.0153534 0.0 
-7.18306e-283 5.09585e-284 0.0 
0.0704768 -0.00884996 0.0 
0.834974 0.202271 0.0 
-7.0203e-53 2.30182e-54 0.0 
1.02651 -0.224612 0.0 
0.0358242 -0.0022901 0.0 
0.931749 0.238589 0.0 
0 0 0.0 
0.571678 -0.00611843 0.0 
0 0 0.0 
0.172878 0.00565838 0.0 
0.134211 -0.00890408 0.0 
0.168146 0.0164308 0.0 
0.297341 0.0906429 0.0 
0.226276 0.0234126 0.0 
0.100808 0.00483053 0.0 
0 0 0.0 
0.0946326 0.00307158 0.0 
0.0613217 -0.00777163 0.0 
1.00183 -0.00190112 0.0 
0.383016 0.192053 0.0 
0.987062 -0.254962 0.0 
4.22439e-189 -3.02303e-190 0.0 
0.309799 0.0749898 0.0 
0.154691 0.00731864 0.0 
0.0502477 -0.00673749 0.0 
0.300509 -0.14501 0.0 
0.0550227 -0.00894325 0.0 
0.0749423 -0.0055435 0.0 
0 0 0.0 
0.020122 0.00141586 0.0 
0.0791817 -0.0186449 0.0 
0.272027 -0.108756 0.0 
0 0 0.0 
0.56108 0.134942 0.0 
-5.3242e-274 5.59767e-275 0.0 
0.530586 -0.46573 0.0 
0.96631 0.100775 0.0 
1.043 -0.0719352 0.0 
0.0988718 -0.00558339 0.0 
6.22913e-05 -7.37943e-06 0.0 
0.0868113 -0.00752457 0.0 
0.0686264 0.0103023 0.0 
0.172996 0.0315913 0.0 
-1.23259e-57 4.76447e-58 0.0 
0 0 0.0 
0 0 0.0 
0.129242 0.0146131 0.0 
0.0219459 -0.00203249 0.0 
0.131187 -0.0153277 0.0 
0.00093227 9.66807e-05 0.0 
0.0178374 -0.0027889 0.0 
0.00847843 -0.00088672 0.0 
0.99914 0.0331692 0.0 
0.969712 0.013319 0.0 
0 0 0.0 
0.236456 -0.0059231 0.0 
0.0121628 -0.0006414 0.0 
0.1118 0.00458981 0.0 
-8.29995e-140 1.5664e-140 0.0 
0 0 0.0 
0.21557 -0.00204273 0.0 
9.30552e-08 1.45732e-08 0.0 
0.32107 0.0128756 0.0 
0.651996 0.0946011 0.0 
0.0596081 -0.00705789 0.0 
0.00703098 0.000810629 0.0 
0.0975559 -0.0157821 0.0 
0.580262 -0.0380446 0.0 
0.157363 0.00607133 0.0 
0.143924 -0.0141135 0.0 
0.60666 -0.267027 0.0 
0.849353 0.225281 0.0 
0.851021 0.0285273 0.0 
0.207711 -0.0219465 0.0 
0.0472755 -0.00797916 0.0 
0.28409 -0.0112375 0.0 
1.01064 0.0280532 0.0 
0.0261163 -0.0040439 0.0 
0.192641 0.0772959 0.0 
0.303047 0.00214024 0.0 
0.170833 -0.00296316 0.0 
1e-307 0 0.0 
3.57868e-06 3.64859e-07 0.0 
1.08103 -0.0795406 0.0 
0 0 0.0 
-2.76754e-54 -3.68397e-55 0.0 
0.5287 -0.0145301 0.0 
8.04119e-06 -8.06352e-08 0.0 
1 0 0.0 
0.770765 -0.128029 0.0 
0.698744 0.135228 0.0 
0.00516325 -0.000494235 0.0 
0 0 0.0 
1.06531 -0.0922525 0.0 
0.101811 0.0182041 0.0 
0.0954836 -0.00264729 0.0 
0.0198786 -0.000175342 0.0 
1.00641 -0.0905864 0.0 
0.0872398 0.00455395 0.0 
0.982469 -0.0411556 0.0 
0.015705 -0.00397183 0.0 
0.118182 -0.00493297 0.0 
0 0 0.0 
0.191498 0.0161996 0.0 
0.0160005 -0.000983976 0.0 
0.113436 -0.0118467 0.0 
0.179233 0.0130753 0.0 
1.03851e-10 2.9308e-11 0.0 
0.0552604 -0.0071632 0.0 
0.631665 -0.0525429 0.0 
1.0238 -0.12137 0.0 
-2.52269e-49 2.54663e-50 0.0 
0.127549 -0.0147659 0.0 
0.959004 -0.253393 0.0 
0.0646403 0.00331508 0.0 
0 0 0.0 
0.773997 -0.100301 0.0 
0.0353902 -0.00299267 0.0 
0 0 0.0 
0.037873 -0.0040346 0.0 
0.0018665 0.000155233 0.0 
0 0 0.0 
0.0182893 0.0010787 0.0 
0.184373 -0.00273078 0.0 
0.127701 0.00566594 0.0 
0 0 0.0 
3.05195e-237 4.73385e-238 0.0 
0.0875796 -0.0154213 0.0 
0.0593166 -0.0016051 0.0 
0.816669 0.210039 0.0 
0.117091 0.00954864 0.0 
0.426945 -0.0121558 0.0 
1.08738 -0.197014 0.0 
0.115199 0.0027076 0.0 
0.0678397 -0.0129629 0.0 
0.0596535 0.00268758 0.0 
8.80564e-193 9.93194e-194 0.0 
0.073677 -0.0183284 0.0 
0.702044 0.0775817 0.0 
0.206012 -0.0263112 0.0 
0 0 0.0 
0.231419 -0.117463 0.0 
0.0366131 0.000812916 0.0 
1e-307 0 0.0 
1.08084 -0.212196 0.0 
0.372373 -0.00399166 0.0 
0.942349 0.137344 0.0 
0.0299976 -0.00434042 0.0 
0.0237184 -0.00330188 0.0 
0.0788496 -0.00920365 0.0 
0.307067 -0.0211551 0.0 
0.0774455 -0.0131687 0.0 
1.81584e-189 -3.03755e-190 0.0 
0.143739 0.0151564 0.0 
0.204531 0.0227697 0.0 
0.86545 0.290694 0.0 
0.156318 0.0203848 0.0 
0.914304 0.10843 0.0 
-6.59503e-140 4.17424e-142 0.0 
0 0 0.0 
0.0241084 -0.00309171 0.0 
0.134186 -0.0198018 0.0 
0.862512 0.157374 0.0 
6.72944e-189 1.05968e-190 0.0 
-1.05554e-284 7.48828e-286 0.0 
0.114946 -0.00672939 0.0 
0.034844 -0.00154056 0.0 
2.48704e-99 3.50404e-100 0.0 
0.999553 -0.00134673 0.0 
0.0556861 -0.00730891 0.0 
0.112853 -0.00967764 0.0 
0.0565715 0.00917508 0.0 
0 0 0.0 
0.191575 0.0172569 0.0 
1.00243 -0.000280138 0.0 
0.140983 0.0145728 0.0 
0 0 0.0 
0.145575 0.00558195 0.0 
0.47652 -0.0302606 0.0 
0.15058 0.00104578 0.0 
0.825661 0.337013 0.0 
0.162319 0.00985604 0.0 
0.0520541 0.00271077 0.0 
-3.9352e-272 -7.07814e-274 0.0 
0.329923 0.026644 0.0 
0.123076 -0.00678164 0.0 
0.0586826 -0.00219428 0.0 
-5.99176e-138 1.31681e-138 0.0 
0.0796389 -0.012376 0.0 
0.119696 -0.0119607 0.0 
7.7006e-191 -3.64124e-192 0.0 
0.57012 0.0406536 0.0 
0.720767 -0.0554215 0.0 
0.0814386 -0.00167372 0.0 
0.998828 -0.014324 0.0 
0.130821 0.00821367 0.0 
0.296856 -0.0187347 0.0 
0 0 0.0 
0.054402 -0.0103796 0.0 
0.204511 0.012914 0.0 
0.098141 -0.0100063 0.0 
0.135704 0.00523977 0.0 
6.57492e-99 -2.88608e-100 0.0 
0.000131436 1.15382e-05 0.0 
2.1133e-229 -2.81498e-230 0.0 
0 0 0.0 
1.00233 -0.000676193 0.0 
0.793665 0.270391 0.0 
0.591324 0.269464 0.0 
0.486797 -0.216287 0.0 
0.000912781 7.4239e-05 0.0 
0.0030345 0.000152618 0.0 
0 0 0.0 
0 0 0.0 
0.100998 0.00519783 0.0 
0 0 0.0 
0.0298213 -0.00595501 0.0 
0.144939 -0.0152557 0.0 
0.175285 -0.0110162 0.0 
0.00702616 -0.002991 0.0 
0 0 0.0 
0.0477772 -0.00350462 0.0 
0.0152854 0.000893246 0.0 
0.0622552 -0.0171891 0.0 
0.950813 0.0869383 0.0 
0.00222292 9.11346e-05 0.0 
0.0774822 0.00376835 0.0 
0.185852 0.0221714 0.0 
0 0 0.0 
0.0434128 -0.0010207 0.0 
-1.40043e-274 -2.51891e-276 0.0 
0.148434 -0.0142044 0.0 
0.00333572 -4.02975e-05 0.0 
0 0 0.0 
0.989883 0.00420979 0.0 
0.00106985 0.000104443 0.0 
0.188374 0.007386 0.0 
-4.35841e-54 5.77441e-56 0.0 
0.0739048 -0.00888547 0.0 
0 0 0.0 
0.188274 -0.0146805 0.0 
1.04919 -0.0247023 0.0 
6.04951e-08 8.89437e-09 0.0 
0 0 0.0 
1.01336 0.0055256 0.0 
0.211326 0.0065718 0.0 
0 0 0.0 
0.00363277 -4.30087e-05 0.0 
0.00657213 -0.000664429 0.0 
0.136784 0.00508538 0.0 
0.0874015 0.00270867 0.0 
0.420103 0.0245036 0.0 
0.408889 0.0315593 0.0 
0.020628 0.000659137 0.0 
0.0477572 -0.00554604 0.0 
0.0899113 -0.0097003 0.0 
0.13691 -0.0179344 0.0 
0.0796387 -0.00303235 0.0 
0.0206568 0.00177776 0.0 
0.400011 -0.000798814 0.0 
1.0049 -0.00135814 0.0 
0.00121011 1.34916e-05 0.0 
0.365559 0.0512625 0.0 
0.150977 -0.0132253 0.0 
-1.55406e-276 1.80757e-277 0.0 
0.0183397 0.000690408 0.0 
0.770364 0.32859 0.0 
0.039117 0.00208198 0.0 
0.194098 -0.0187696 0.0 
1.00298 0 0.0 
0.173155 -0.00330908 0.0 
0.0783137 0.00419849 0.0 
0.0071549 0.000672239 0.0 
0.360007 0.0972707 0.0 
0.0598484 -0.00635949 0.0 
0.0692801 0.00097227 0.0 
0 0 0.0 
0.911382 0.316407 0.0 
0.0591953 -0.00688196 0.0 
0.0168136 0.000434578 0.0 
0.000506796 -7.2151e-05 0.0 
0.13545 -0.00297434 0.0 
0.804786 0.356714 0.0 
0.10653 0.0048728 0.0 
0.930325 0.103389 0.0 
0.523467 -0.013587 0.0 
0.98161 -0.0099443 0.0 
2.03889e-183 -1.59218e-184 0.0 
0.429763 0.0468451 0.0 
0 0 0.0 
0.000141734 2.86462e-06 0.0 
0.102063 0.00531543 0.0 
1.01042 0.0333469 0.0 
0.104562 -0.0089534 0.0 
1.07593 0.162598 0.0 
0 0 0.0 
0.13539 0.0062162 0.0 
0 0 0.0 
1.00353 0.00201146 0.0 
0.000103238 3.08993e-05 0.0 
0.0067693 -0.000985893 0.0 
0.340447 0.000561288 0.0 
0.397099 0.0293606 0.0 
0.0535899 -0.0125797 0.0 
0.106719 -0.00721985 0.0 
0.770797 -0.444324 0.0 
0.402217 -0.0195252 0.0 
0.890876 0.328198 0.0 
0.397547 0.00317974 0.0 
0.72295 0.261317 0.0 
0.82258 0.155447 0.0 
0.0567526 0.00167922 0.0 
0 0 0.0 
0.0376027 -0.00401189 0.0 
0.210699 -0.0182139 0.0 
0.276336 0.00820228 0.0 
0.138711 0.00613265 0.0 
0.805062 0.18775 0.0 
0.0460863 0.0305168 0.0 
0.736405 0.34303 0.0 
0.971738 -0.0221663 0.0 
-1.64877e-52 4.7829e-54 0.0 
0.682316 0.230543 0.0 
0.496779 0.00786523 0.0 
0.00457943 1.80617e-05 0.0 
0.170138 0.0182679 0.0 
0.118858 -0.0109505 0.0 
0.482319 -0.454582 0.0 
0.011729 0.00108538 0.0 
0.722621 0.191922 0.0 
0.0954685 -0.00751607 0.0 
0 0 0.0 
0.886709 -0.156222 0.0 
0.853645 -0.375779 0.0 
0.139541 -0.0115298 0.0 
0 0 0.0 
1.05795 -0.178153 0.0 
0.46382 -0.0130645 0.0 
1.00867 0.000969234 0.0 
0.511013 0.156908 0.0 
0.144301 -0.00551902 0.0 
0 0 0.0 
0.299362 0.055946 0.0 
0 0 0.0 
0.157742 0.00603427 0.0 
0.601625 0.307877 0.0 
1.00016 -0.000942258 0.0 
1.11332 0.105385 0.0 
0.289367 -0.0198786 0.0 
0.132683 0.00606289 0.0 
0.367226 -0.0205688 0.0 
1.07304 0.108235 0.0 
5.04531e-06 -2.59241e-07 0.0 
0.0191491 0.00118639 0.0 
0.665492 0.280199 0.0 
0 0 0.0 
0 0 0.0 
0 0 0.0 
0.00853168 0.000763359 0.0 
1.01916 -0.002069 0.0 
0.760726 -0.371915 0.0 
0.665549 -0.0416235 0.0 
0.368537 0.00458926 0.0 
0.153505 -0.0125499 0.0 
0 0 0.0 
0 0 0.0 
0.986533 -0.0319184 0.0 
0.122023 0.00533363 0.0 
1.0094 0 0.0 
1.01203 -0.000186049 0.0 
0.00661219 -0.00123798 0.0 
0.652045 0.36038 0.0 
0 0 0.0 
0.260394 -0.0182833 0.0 
0.735547 0.129277 0.0 
0.00150613 0.000140919 0.0 
0.851009 0.110239 0.0 
0.731272 0.316876 0.0 
0.37495 0.00647074 0.0 
0.0257163 0.000401442 0.0 
0 0 0.0 
0.110227 0.0122679 0.0 
0 0 0.0 
0.819944 0.00643422 0.0 
0.842768 0.0652155 0.0 
0.153423 0.00656786 0.0 
0 0 0.0 
-4.63183e-274 -5.00701e-276 0.0 
0.317098 0.0188617 0.0 
0.705298 0.216012 0.0 
0.309077 0.0259909 0.0 
0.175874 0.0129512 0.0 
0.400783 -0.00596282 0.0 
0.841281 0.00947185 0.0 
0.00763713 -0.00084135 0.0 
0.00183684 -0.000448422 0.0 
0.62206 -0.198968 0.0 
1.085e-98 5.75458e-100 0.0 
0.0365573 0.0017164 0.0 
0.999747 -0.000272068 0.0 
1 0 0.0 
1.00104 0.0181019 0.0 
0 0 0.0 
0 0 0.0 
-1.71874e-54 2.27713e-56 0.0 
0.592874 0.050321 0.0 
0 0 0.0 
0.00076053 2.51149e-05 0.0 
0.144329 0.00608015 0.0 
0.120144 0.0159472 0.0 
0.999892 0.000887119 0.0 
0.84216 0.167082 0.0 
0 0 0.0 
0.510297 -0.0965801 0.0 
0.268436 0.0026908 0.0 
0.0544579 0.00260951 0.0 
0.716388 0.257527 0.0 
0.597577 -0.327676 0.0 
0.188097 -0.0154956 0.0 
0 0 0.0 
0.0697642 0.00308555 0.0 
0.0336173 -0.0124576 0.0 
0.478779 -0.0472461 0.0 
0.766992 0.0893129 0.0 
0.838151 0.0121061 0.0 
0 0 0.0 
2.37136e-06 -9.1604e-07 0.0 
0.000125463 4.17618e-05 0.0 
0.831985 -0.201463 0.0 
0.999784 -0.00129959 0.0 
0.839695 0.346241 0.0 
0.874806 0.339092 0.0 
0.00149562 0.000136945 0.0 
0 0 0.0 
0 0 0.0 
0.539646 0.0246239 0.0 
0 0 0.0 
0.106787 0.00303781 0.0 
0.0152339 -0.00197228 0.0 
0.101451 0.0148853 0.0 
0.315326 -0.00992849 0.0 
0.0709915 0.00755809 0.0 
0 0 0.0 
0.343117 -0.0189075 0.0 
0.670144 0.209728 0.0 
-1.44832e-281 -2.29483e-282 0.0 
0.812762 -0.15173 0.0 
1.05582 0.119706 0.0 
0.0454218 0.000922988 0.0 
0.451678 -0.0101716 0.0 
0.56821 0.17304 0.0 
4.38146e-05 -6.69927e-06 0.0 
0.104234 -0.00944601 0.0 
0.110144 -0.0101545 0.0 
0.204868 0.0065072 0.0 
0.938425 0.0454999 0.0 
0.155678 -0.0130622 0.0 
1.58136e-09 5.45631e-10 0.0 
0.122361 0.00469838 0.0 
1e-307 1e-307 0.0 
0.039396 -0.000856933 0.0 
0.168379 -0.137991 0.0 
0.89515 -0.062747 0.0 
0.825295 -0.446849 0.0 
0.117477 -0.0223551 0.0 
1.0263 0.0441757 0.0 
0.294885 -0.00088255 0.0 
0.0160415 -0.000272882 0.0 
0.193532 0.014844 0.0 
0.0548126 -0.00734397 0.0 
0.110577 0.00308163 0.0 
0.949057 -0.0251678 0.0 
0.0800379 0.00089599 0.0 
0.274915 -0.00835488 0.0 
0.0141438 0.000693235 0.0 
1.03116 0.105878 0.0 
0.743052 0.146499 0.0 
0.477271 -0.0413031 0.0 
0 0 0.0 
0.965414 -0.0450723 0.0 
0.978562 0.284634 0.0 
0.891302 -0.316451 0.0 
0.0498579 0.00150442 0.0 
0.48976 -0.0798629 0.0 
0.757251 0.269313 0.0 
0.842094 0.00880798 0.0 
0.0298757 -0.000976537 0.0 
0.702462 0.241674 0.0 
0.230878 -0.0171098 0.0 
-1.18214e-140 -6.44231e-141 0.0 
0.00651811 -0.0011072 0.0 
0 0 0.0 
0.119796 0.00518914 0.0 
0.909598 0.14953 0.0 
0 0 0.0 
0 0 0.0 
0.741286 0.213854 0.0 
0.271466 0.00150073 0.0 
0 0 0.0 
0 0 0.0 
0.674777 0.135458 0.0 
0.0932886 0.00426364 0.0 
0 0 0.0 
1.04211 0.226448 0.0 
0 0 0.0 
0.314286 0.0138743 0.0 
0.307795 -0.00759576 0.0 
0.70272 0.164694 0.0 
0.951688 -0.153467 0.0 
4.48617e-199 -2.76846e-200 0.0 
0.482165 0.000159627 0.0 
0.832007 0.262009 0.0 
0.205186 -0.0199793 0.0 
0 0 0.0 
1.04561 0.00173858 0.0 
1 0 0.0 
0 0 0.0 
0.975395 -0.178959 0.0 
-3.65749e-142 -2.39143e-143 0.0 
0 0 0.0 
0.57476 0.0496026 0.0 
1.63173e-09 5.21268e-10 0.0 
0 0 0.0 
1.11293 0.121011 0.0 
1.0034 -0.00739973 0.0 
0.770416 -0.341551 0.0 
0.0209467 0.000615478 0.0 
0.815577 -0.33324 0.0 
0.0317099 0.000404981 0.0 
0.841674 -0.376379 0.0 
0.477405 -0.448576 0.0 
1.00139 -0.00640544 0.0 
0.0828814 -0.00446763 0.0 
0.000351761 3.76322e-05 0.0 
0.171674 0.00722959 0.0 
0.890811 -0.398655 0.0 
0.718637 0.00557287 0.0 
8.55972e-225 9.01754e-227 0.0 
0.574152 -0.0112258 0.0 
0.0290297 -0.0037958 0.0 
0.675444 0.0682788 0.0 
0.52988 0.0131327 0.0 
0.750011 -0.0286827 0.0 
1.06583 -0.250699 0.0 
0.516406 0.0153836 0.0 
0.881488 -0.410886 0.0 
0.00697452 -0.000730702 0.0 
0.0175325 -0.000117903 0.0 
0.631784 -0.1018 0.0 
0 0 0.0 
0.881627 -0.235529 0.0 
-1.6186e-49 -2.86513e-50 0.0 
0 0 0.0 
0 0 0.0 
0.0219988 -0.00089213 0.0 
0 0 0.0 
0.123173 -0.010546 0.0 
0.304319 0.0107377 0.0 
0.0608515 0.00274438 0.0 
0.00228728 -0.000437555 0.0 
4.673e-103 3.80913e-103 0.0 
0.957725 -0.0272155 0.0 
0 0 0.0 
0.839905 0.307886 0.0 
1e-307 0 0.0 
0.0888083 0.00387665 0.0 
0 0 0.0 
0.549034 -0.363194 0.0 
0.0598939 -0.0100272 0.0 
0.0203128 -0.00234177 0.0 
0.123938 0.00523613 0.0 
0.10675 0.00461189 0.0 
0 0 0.0 
0.614851 -0.322958 0.0 
1.07624 -0.230147 0.0 
0.955748 -0.0136314 0.0 
0 0 0.0 
0.764708 0.0794877 0.0 
0.00161484 -9.0472e-05 0.0 
0 0 0.0 
0.675849 -0.0775568 0.0 
-1.49866e-47 8.22597e-50 0.0 
4.97586e-05 4.65888e-06 0.0 
0.998072 -0.0464033 0.0 
0.00519023 0.00107602 0.0 
0 0 0.0 
0.481242 -0.00663573 0.0 
0.661423 -0.00624241 0.0 
0.804369 0.316176 0.0 
0.714602 0.115268 0.0 
0.139381 -0.00933717 0.0 
0.863895 0.329286 0.0 
0.200386 0.0216105 0.0 
0.769161 0.112631 0.0 
0.01204 0.0010111 0.0 
0 0 0.0 
0.00101706 -0.000126389 0.0 
0.852682 -0.0936497 0.0 
0.930557 0.287853 0.0 
0.401508 0.204866 0.0 
0.000207209 1.70936e-05 0.0 
0.738792 0.098703 0.0 
0.903811 0.324806 0.0 
0.579087 -0.0117263 0.0 
1.03109 0.00602551 0.0 
0.876459 0.31739 0.0 
0 0 0.0 
0.141788 0.00606139 0.0 
0.539961 0.281811 0.0 
0.982931 0.279956 0.0 
0.105303 0.00725778 0.0 
0.866057 0.33981 0.0 
0.439778 0.00718291 0.0 
0 0 0.0 
0.990018 0.274443 0.0 
0.928114 -0.206574 0.0 
0.474745 -0.0934911 0.0 
0.0487795 0.00182588 0.0 
0.99889 -0.00301007 0.0 
-1.90733e-54 -4.15717e-55 0.0 
0.380903 0.0183741 0.0 
3.7949e-231 -1.62006e-233 0.0 
0.83834 -0.00835057 0.0 
0.53943 -0.00919132 0.0 
0.648139 0.0722329 0.0 
0.901155 0.089845 0.0 
0.983642 -0.0623586 0.0 
0.660893 -0.0660925 0.0 
0.681683 0.0615241 0.0 
0 0 0.0 
0.0827495 0.00120715 0.0 
0.118387 0.0036904 0.0 
-1.23997e-140 -8.27009e-142 0.0 
0.00959809 -0.00125584 0.0 
0.688277 -0.00536801 0.0 
1.00127 0.00286699 0.0 
0.0321219 -0.013553 0.0 
0.0112832 0.00108856 0.0 
0.0993775 0.0046514 0.0 
0.103313 0.000279864 0.0 
0.205718 0.000579909 0.0 
0.642499 0.0539312 0.0 
0.225173 -0.0066498 0.0 
0.103916 0.00417755 0.0 
1.05279 0.149338 0.0 
0 0 0.0 
0.999623 0 0.0 
0 0 0.0 
0.051308 -0.00603845 0.0 
0.932709 0.127285 0.0 
0.905013 0.113043 0.0 
1.0006 0 0.0 
0 0 0.0 
-3.45076e-142 -8.65818e-144 0.0 
0.384607 0.00689772 0.0 
0.102865 0.00534471 0.0 
0.484101 0.00321481 0.0 
0.989493 0.198662 0.0 
0.221007 0.017284 0.0 
0.144806 0.00641387 0.0 
0.00800089 -0.00109438 0.0 
0 0 0.0 
0 0 0.0 
-2.02623e-50 1.19251e-51 0.0 
1.02419 -0.00598284 0.0 
0.977866 -0.0455437 0.0 
1.02249 -0.00280157 0.0 
0.888557 -0.0223889 0.0 
0.214501 0.0089915 0.0 
1.0009 0.00305055 0.0 
1.00035 -0.000313192 0.0 
0.347005 0.0643074 0.0 
0 0 0.0 
0.572393 -0.230598 0.0 
0.0784139 -0.0096891 0.0 
0.107213 0.00405694 0.0 
0 0 0.0 
0.138245 0.00137483 0.0 
0.669532 -0.138031 0.0 
0.0776729 -0.00887727 0.0 
0.0255125 -0.000861591 0.0 
0.187977 0.00804004 0.0 
0.837633 0.333303 0.0 
0.181866 0.00483005 0.0 
0.191483 0.00787098 0.0 
0.126591 0.00238026 0.0 
0.18332 -0.00528017 0.0 
0.811434 -0.09384 0.0 
0.118233 0.0280061 0.0 
0.502025 0.0581097 0.0 
1.02913 0.135031 0.0 
0.902137 0.208166 0.0 
0 0 0.0 
1.64654e-104 5.72242e-105 0.0 
0 0 0.0 
0.779993 0.00226049 0.0 
0.811415 -0.0216747 0.0 
0.0673696 0.00353934 0.0 
0.998561 -0.319164 0.0 
0.892024 0.331529 0.0 
1.00087 0 0.0 
1.91539e-238 1.26961e-239 0.0 
0.238749 0.00590188 0.0 
0.0480504 -0.00583583 0.0 
0.354595 0.00329193 0.0 
0.976555 -0.130597 0.0 
0.418442 -0.00884234 0.0 
0.089476 0.00439736 0.0 
0.618006 0.195047 0.0 
0.0265976 -0.00169805 0.0 
1.07991 -0.0353644 0.0 
0.811127 0.29308 0.0 
1.0126 -0.0736799 0.0 
0.41483 -0.013204 0.0 
0.624832 0.104385 0.0 
0.238989 0.00706602 0.0 
0 0 0.0 
-2.36122e-48 -6.35157e-50 0.0 
0.996445 0.0302655 0.0 
0.808294 -0.081695 0.0 
0.0194494 -0.0522886 0.0 
0.793612 0.102178 0.0 
0.530315 0.0285256 0.0 
0.000526233 1.59713e-05 0.0 
0.137867 -0.0139068 0.0 
0.0552985 0.00224981 0.0 
0.0100245 0.000737955 0.0 
0.297955 0.00400892 0.0 
0.200093 -0.00205613 0.0 
0 0 0.0 
2.5648e-112 8.91374e-113 0.0 
0.331956 0.0102977 0.0 
1.00256 0 0.0 
0.82608 -0.0237096 0.0 
0.00137789 0.0001534 0.0 
0 0 0.0 
1.07395e-188 -4.46961e-190 0.0 
0.980986 0.0956276 0.0 
0.0297987 0.00172519 0.0 
1.00956 0.269931 0.0 
0.136061 0.00603559 0.0 
1.06307 -0.0537213 0.0 
0.999845 -0.329302 0.0 
0.635579 0.0757907 0.0 
0.428439 -0.0337233 0.0 
0.203835 -0.105607 0.0 
-3.38444e-55 -9.22554e-57 0.0 
0.14841 0.00545478 0.0 
0.0176077 0.0016425 0.0 
0.998885 -0.000250262 0.0 
0.998506 0.263459 0.0 
1.06858 0.141967 0.0 
0.953131 0.284257 0.0 
0.585964 -0.124159 0.0 
0.829895 0.25727 0.0 
0 0 0.0 
0.594086 0.0148481 0.0 
1.02329 -0.149156 0.0 
0.65999 -0.0650975 0.0 
0.872096 -0.196955 0.0 
1.00731 0.251676 0.0 
-5.52856e-56 -1.95793e-56 0.0 
0.576434 0.287349 0.0 
0.887892 -0.226565 0.0 
0.256629 0.0283539 0.0 
1.09384 0.0151454 0.0 
0.553125 -0.0983618 0.0 
0.0871335 0.00236528 0.0 
0 0 0.0 
0.391151 0.0342352 0.0 
0.700456 -0.0595559 0.0 
0.100575 -0.00234953 0.0 
0.260687 0.0200068 0.0 
0.533485 -0.0502319 0.0 
1 0 0.0 
0.0756113 0.0080136 0.0 
0.780936 0.259541 0.0 
0.230034 -0.000509528 0.0 
0.989859 0.0562872 0.0 
0.439726 -0.0085028 0.0 
0.235873 0.00698921 0.0 
0.58666 0.327991 0.0 
0.771046 0.02303 0.0 
0.917616 0.253299 0.0 
0.228407 0.0467877 0.0 
0.617284 -0.108651 0.0 
-6.77585e-49 1.33233e-49 0.0 
0.112694 -0.0120641 0.0 
1.01693 0.00879463 0.0 
0.231636 0.00429854 0.0 
0 0 0.0 
0.955635 -0.0287769 0.0 
0.8934 -0.0481195 0.0 
0 0 0.0 
0.00424945 -0.000500896 0.0 
1.0091 0 0.0 
0.131131 0.00482746 0.0 
0.0444467 0.00197585 0.0 
0.0183933 0.00181478 0.0 
0 0 0.0 
1.0051 0.19298 0.0 
0.0250014 0.000863395 0.0 
0.266394 0.0246535 0.0 
0.0461801 0.00259496 0.0 
0.932976 0.176677 0.0 
0.447843 0.0242831 0.0 