<VTKFile type="UnstructuredGrid" version="0.1" byte_order="LittleEndian">
  <UnstructuredGrid>
    <Piece NumberOfPoints="13568" NumberOfCells="26978">
      <Points>
        <DataArray type = "Float64" NumberOfComponents="3" format="ascii">
0 0 0.0 
14 0 0.0 
14 8 0.0 
0 8 0.0 
4.57783 4.07253 0.0 
4.26988 4.06679 0.0 
5.15553 4.02606 0.0 
5.03247 3.98293 0.0 
4.01347 3.94819 0.0 
3.94967 4.05786 0.0 
6.4899 5.70082 0.0 
4.38549 4.03914 0.0 
4.3205 3.95191 0.0 
4.33291 4.07121 0.0 
4.20706 3.95077 0.0 
4.44461 4.07999 0.0 
4.36506 4.06942 0.0 
8.40909 0 0.0 
4.79858 4.05061 0.0 
4.04366 4.07594 0.0 
5.02127 3.99687 0.0 
12.3008 3.12338 0.0 
4.91977 4.02039 0.0 
4.06288 4.03688 0.0 
4.39277 3.95189 0.0 
4.48705 4.09715 0.0 
4.02359 3.94782 0.0 
4.95014 3.99519 0.0 
4.77227 4.04631 0.0 
4.4096 4.07715 0.0 
4.75711 4.0397 0.0 
4.09422 4.06655 0.0 
3.93575 3.98835 0.0 
5.03122 4.01313 0.0 
4.78586 4.00007 0.0 
4.03015 3.95696 0.0 
8.71087 4.14105 0.0 
4.05789 4.06544 0.0 
4.10075 4.03591 0.0 
4.81354 3.97664 0.0 
4.48295 4.0392 0.0 
4.14394 3.94805 0.0 
4.09973 4.06883 0.0 
4.98031 4.02036 0.0 
4.0631 3.94627 0.0 
4.09324 4.07263 0.0 
4.15111 4.05777 0.0 
5.01594 3.97412 0.0 
4.22735 3.91196 0.0 
4.39859 4.12703 0.0 
3.08171 2.09887 0.0 
4.06915 4.04534 0.0 
4.94674 3.99627 0.0 
4.08538 4.02507 0.0 
4.51354 4.04012 0.0 
4.27473 4.09602 0.0 
4.96872 4.01663 0.0 
3.99368 4.01426 0.0 
4.1201 3.96962 0.0 
4.70681 4.03284 0.0 
4.94587 4.02527 0.0 
4.48201 4.02774 0.0 
5.40537 3.95568 0.0 
4.31812 4.07534 0.0 
10.976 4.12401 0.0 
3.92298 4.03296 0.0 
5.00489 4.02516 0.0 
4.36755 4.07615 0.0 
4.61563 4.05516 0.0 
4.09424 4.05815 0.0 
3.99988 3.98708 0.0 
4.02105 4.04639 0.0 
11.4371 2.11828 0.0 
4.04721 3.95909 0.0 
4.34015 4.14852 0.0 
4.96079 4.00929 0.0 
5.41155 3.85481 0.0 
5.02679 3.9978 0.0 
7.58294 2.91461 0.0 
4.35684 4.08034 0.0 
4.96135 4.00765 0.0 
4.0004 3.9989 0.0 
4.0538 3.95415 0.0 
4.35284 4.10928 0.0 
2.48936 3.97501 0.0 
0.260039 6.58739 0.0 
4.17786 4.07881 0.0 
4.07098 4.14291 0.0 
5.04607 4.02448 0.0 
4.1628 3.94775 0.0 
4.01229 4.05292 0.0 
5.09798 4.0273 0.0 
4.03425 3.97941 0.0 
4.08831 4.06631 0.0 
4.67636 3.93579 0.0 
4.89627 3.99394 0.0 
4.4175 4.12976 0.0 
4.08447 4.04861 0.0 
10.6435 3.98256 0.0 
4.13007 3.95598 0.0 
4.04724 3.97571 0.0 
5.01116 4.01057 0.0 
3.99624 4.02711 0.0 
4.52284 4.09709 0.0 
4.19928 4.09567 0.0 
5.0786 4.01053 0.0 
3.97234 4.03785 0.0 
4.17204 3.92436 0.0 
11.6791 4.2269 0.0 
5.00576 3.98835 0.0 
4.36363 3.9709 0.0 
4.47564 3.99268 0.0 
4.98947 4.00894 0.0 
3.98674 3.91813 0.0 
4.6486 3.98074 0.0 
4.99603 3.97729 0.0 
4.0582 3.9448 0.0 
4.63705 4.04055 0.0 
11.4194 7.77898 0.0 
4.05664 3.81012 0.0 
4.95286 4.03879 0.0 
4.45767 3.99662 0.0 
4.0089 3.92893 0.0 
3.98742 4.01904 0.0 
4.99249 4.01448 0.0 
4.24915 4.05618 0.0 
3.99745 3.98903 0.0 
4.8388 4.02819 0.0 
4.0309 3.97177 0.0 
0 7.72326 0.0 
3.90877 4.04107 0.0 
4.9912 4.02804 0.0 
4.24711 4.08557 0.0 
4.90176 4.01879 0.0 
5.07235 3.99531 0.0 
4.12278 3.96979 0.0 
4.35051 3.9619 0.0 
4.98997 4.02393 0.0 
4.75187 4.04032 0.0 
5.01943 4.02273 0.0 
3.96199 4.03038 0.0 
5.04864 4.04382 0.0 
4.1584 4.03851 0.0 
3.91494 4.13773 0.0 
4.76156 4.05785 0.0 
4.18813 4.09432 0.0 
3.86117 4.12224 0.0 
5.03899 4.01992 0.0 
4.22393 4.0648 0.0 
4.33562 3.96931 0.0 
4.41983 3.97184 0.0 
4.35896 3.94854 0.0 
4.37015 4.09224 0.0 
5.05402 4.03163 0.0 
4.0197 3.9826 0.0 
4.29551 3.96654 0.0 
4.16902 3.98151 0.0 
4.14535 3.95351 0.0 
4.11763 4.04808 0.0 
4.29559 3.95049 0.0 
4.12639 4.05926 0.0 
4.41472 4.04958 0.0 
11.3017 0 0.0 
4.32445 4.08344 0.0 
4.213 4.06906 0.0 
4.96535 3.99151 0.0 
5.0636 3.98872 0.0 
3.98298 4.00201 0.0 
0 0.509497 0.0 
3.98273 4.00621 0.0 
5.37884 4.0258 0.0 
4.98107 3.97981 0.0 
4.55943 3.97708 0.0 
5.03571 4.00684 0.0 
5.85237 5.21679 0.0 
4.98218 4.02738 0.0 
5.18711 4.00903 0.0 
4.41357 3.96274 0.0 
4.27406 4.08825 0.0 
3.95046 4.00001 0.0 
6.06465 3.94858 0.0 
4.22383 4.06305 0.0 
4.29328 4.07015 0.0 
10.7652 3.57737 0.0 
5.15771 3.9871 0.0 
4.99042 4.00399 0.0 
13.2299 4.09289 0.0 
7.10688 3.81214 0.0 
4.4311 4.06834 0.0 
4.01587 3.91881 0.0 
4.4248 3.97142 0.0 
5.69902 3.95263 0.0 
8.92501 4.02764 0.0 
4.39296 4.07057 0.0 
5.01473 3.99974 0.0 
3.97063 4.01516 0.0 
4.98463 4.01475 0.0 
4.88474 4.04745 0.0 
4.52522 3.97498 0.0 
5.00134 4.00081 0.0 
3.91654 3.93923 0.0 
4.21428 4.08445 0.0 
5.01224 3.97834 0.0 
4.02873 4.02055 0.0 
4.17782 3.97888 0.0 
4.9491 4.01001 0.0 
4.24693 3.91958 0.0 
4.44951 4.06775 0.0 
4.43442 3.96057 0.0 
4.95135 3.99624 0.0 
4.63643 3.98156 0.0 
4.34967 4.05447 0.0 
3.97703 3.93348 0.0 
4.4024 3.88713 0.0 
4.32531 3.95741 0.0 
4.00757 3.98474 0.0 
4.65398 4.05057 0.0 
6.18245 4.21201 0.0 
3.9341 4.0511 0.0 
4.02949 3.97631 0.0 
5.42064 4.0275 0.0 
4.22618 4.07263 0.0 
4.28115 4.08293 0.0 
4.25325 4.08014 0.0 
2.53633 0.42227 0.0 
8.83606 7.25521 0.0 
4.98174 4.03773 0.0 
4.68907 4.06774 0.0 
4.21274 3.95915 0.0 
4.11892 4.09278 0.0 
3.82249 4.13293 0.0 
4.77009 4.0378 0.0 
4.01424 4.03115 0.0 
5.86141 3.89 0.0 
4.40134 4.0689 0.0 
4.00975 4.04675 0.0 
12.6909 3.76358 0.0 
2.67239 0 0.0 
4.06488 3.97423 0.0 
4.0643 3.93449 0.0 
4.50728 4.04977 0.0 
4.25 4.04556 0.0 
4.79794 4.03455 0.0 
4.03695 4.06573 0.0 
12.5548 8 0.0 
7.34295 7.0434 0.0 
4.23233 4.101 0.0 
4.26093 4.08097 0.0 
4.20051 4.07495 0.0 
4.27984 4.07853 0.0 
4.18755 4.11048 0.0 
4.34627 4.09804 0.0 
4.11241 4.05725 0.0 
4.0387 4.02685 0.0 
4.71035 4.02722 0.0 
4.35999 3.9441 0.0 
4.01683 4.05945 0.0 
8.75684 0.585272 0.0 
4.00032 4.0278 0.0 
4.80559 4.0533 0.0 
4.74137 4.04247 0.0 
10.9824 1.64492 0.0 
4.99347 4.02007 0.0 
5.7802 4.10949 0.0 
4.00749 3.97714 0.0 
4.88575 4.02196 0.0 
4.95505 4.00983 0.0 
4.25162 3.98747 0.0 
4.27995 4.04964 0.0 
4.21256 4.09139 0.0 
4.0277 4.00858 0.0 
4.44438 4.05445 0.0 
1.61647 2.75158 0.0 
4.22038 3.96575 0.0 
4.00854 4.04134 0.0 
8.03046 5.83915 0.0 
3.9869 4.03092 0.0 
4.11296 4.23663 0.0 
4.01725 3.81711 0.0 
3.93323 3.9254 0.0 
5.00162 3.97999 0.0 
4.23967 3.9471 0.0 
4.28219 4.07607 0.0 
6.27584 7.1793 0.0 
4.60389 3.95085 0.0 
4.01731 3.97083 0.0 
4.24632 4.05089 0.0 
4.88842 4.01984 0.0 
4.09154 3.93527 0.0 
4.94424 4.01124 0.0 
4.6559 7.60199 0.0 
6.37314 3.96065 0.0 
4.10803 3.99306 0.0 
4.48218 4.10456 0.0 
4.44131 3.95584 0.0 
3.99835 4.02918 0.0 
5.99024 2.02162 0.0 
4.7586 4.03902 0.0 
3.95489 3.89679 0.0 
5.3262 4.0473 0.0 
5.05532 3.96524 0.0 
4.11317 3.96185 0.0 
4.19551 3.97637 0.0 
3.99623 4.03627 0.0 
4.03277 4.00935 0.0 
4.05133 4.02283 0.0 
4.46719 4.06843 0.0 
4.49419 4.08362 0.0 
4.1755 3.94311 0.0 
4.36691 4.08793 0.0 
4.0781 3.98964 0.0 
4.22361 4.04691 0.0 
4.53352 3.97672 0.0 
5.61751 3.88935 0.0 
4.82099 3.98828 0.0 
4.00652 4.03234 0.0 
4.36786 3.93619 0.0 
4.42014 4.08348 0.0 
4.15353 3.96406 0.0 
4.00427 4.04292 0.0 
4.83656 4.02878 0.0 
4.28691 4.13001 0.0 
4.45366 2.003 0.0 
4.99643 3.98691 0.0 
3.99047 3.98781 0.0 
4.23437 4.04707 0.0 
4.04839 4.01492 0.0 
4.74674 3.98724 0.0 
4.02251 4.02916 0.0 
4.98996 3.97879 0.0 
5.29766 3.97245 0.0 
3.98656 4.03719 0.0 
4.20743 4.08772 0.0 
4.3994 3.99099 0.0 
4.25447 3.94259 0.0 
4.11143 3.95643 0.0 
4.84042 4.02734 0.0 
4.03513 4.02548 0.0 
4.51838 4.06502 0.0 
4.1401 3.98497 0.0 
3.79284 4.09599 0.0 
4.82844 4.02971 0.0 
4.04131 3.99766 0.0 
4.03224 3.83775 0.0 
5.03609 3.98885 0.0 
0.712024 5.21358 0.0 
3.9756 4.08504 0.0 
4.037 4.008 0.0 
4.06005 3.96532 0.0 
4.01609 3.97786 0.0 
4.04847 4.04817 0.0 
4.01118 3.98048 0.0 
11.6702 4.9815 0.0 
4.19216 3.95644 0.0 
4.42065 4.09013 0.0 
3.9514 4.04615 0.0 
4.80927 4.04945 0.0 
4.03373 4.01881 0.0 
4.8088 4.04703 0.0 
4.75358 3.98595 0.0 
4.0536 4.035 0.0 
4.0241 4.0517 0.0 
4.03402 4.05512 0.0 
4.01068 3.99745 0.0 
4.02872 3.99494 0.0 
4.49051 3.97431 0.0 
4.40413 4.05425 0.0 
4.461 4.11166 0.0 
5.02756 3.99069 0.0 
4.27968 3.89833 0.0 
4.11458 4.06637 0.0 
3.94839 3.98159 0.0 
4.21846 3.91954 0.0 
4.39411 4.1442 0.0 
9.77663 2.66851 0.0 
4.11421 3.96736 0.0 
4.07021 3.95517 0.0 
4.04584 3.88184 0.0 
4.71346 3.93128 0.0 
4.99229 3.9974 0.0 
4.99713 3.99532 0.0 
4.0671 3.98981 0.0 
4.09658 4.01691 0.0 
4.17319 3.9653 0.0 
4.51829 4.04333 0.0 
4.39635 3.90538 0.0 
4.00518 3.97325 0.0 
5.01982 4.03188 0.0 
4.11872 3.94508 0.0 
4.35454 4.08492 0.0 
5.26751 4.00914 0.0 
4.12278 4.08789 0.0 
4.25468 3.93167 0.0 
4.76577 3.95841 0.0 
4.06493 3.98337 0.0 
4.10972 3.98804 0.0 
4.28366 4.11032 0.0 
4.1316 4.07308 0.0 
4.12603 3.95528 0.0 
4.05163 3.99747 0.0 
4.78457 4.06251 0.0 
5.22787 3.96313 0.0 
4.39149 5.27867 0.0 
3.84711 3.84617 0.0 
4.06987 3.96362 0.0 
3.99891 4.05059 0.0 
1.07232 3.03194 0.0 
3.99154 4.0424 0.0 
4.0028 3.99482 0.0 
4.01671 4.01538 0.0 
4.63166 4.07477 0.0 
4.05033 4.00375 0.0 
4.7869 4.03576 0.0 
4.01497 4.02055 0.0 
4.03734 3.98999 0.0 
4.20672 4.05011 0.0 
3.98689 4.0502 0.0 
4.72965 3.97246 0.0 
4.04817 3.99065 0.0 
3.9746 4.03383 0.0 
4.18692 3.95492 0.0 
4.93518 3.99694 0.0 
4.01253 4.07738 0.0 
4.73407 4.04248 0.0 
6.52723 6.42626 0.0 
3.97752 4.04103 0.0 
4.43771 3.8822 0.0 
4.82678 4.05917 0.0 
3.99979 3.98858 0.0 
4.17675 4.04307 0.0 
6.85608 0 0.0 
4.52933 3.9765 0.0 
4.02535 4.03096 0.0 
0 3.17328 0.0 
4.71962 4.04473 0.0 
4.0784 3.94608 0.0 
4.06315 4.0505 0.0 
4.00388 3.99185 0.0 
4.20451 3.93129 0.0 
4.03526 3.97684 0.0 
4.24867 4.13525 0.0 
3.99069 3.9699 0.0 
3.95331 3.9694 0.0 
3.99271 3.9642 0.0 
3.99956 3.96553 0.0 
4.2928 3.99707 0.0 
4.37258 4.09634 0.0 
4.21794 4.06355 0.0 
4.01563 3.96922 0.0 
4.64069 3.98065 0.0 
3.96685 4.01763 0.0 
4.88067 4.0216 0.0 
4.21802 3.99172 0.0 
4.23043 4.08769 0.0 
3.94351 4.03157 0.0 
4.06054 3.992 0.0 
4.20202 3.94256 0.0 
4.00699 3.96684 0.0 
4.21071 3.95506 0.0 
4.07577 3.95908 0.0 
4.05898 4.11993 0.0 
4.30616 3.94101 0.0 
13.577 4.45538 0.0 
4.04289 3.99471 0.0 
2.77957 3.1451 0.0 
4.69638 3.95503 0.0 
4.64438 3.9816 0.0 
4.99961 3.96968 0.0 
4.38837 4.05607 0.0 
0.811116 7.0622 0.0 
4.18278 4.0463 0.0 
4.15532 3.97639 0.0 
4.28883 4.05928 0.0 
4.17865 4.06587 0.0 
[...]
<PointData>
  <DataArray type = "Float64" Name="Vitesse" NumberOfComponents="3" format="ascii">
1 0 0.0 
1.0093 0 0.0 
1.0067 0 0.0 
1 0 0.0 
0.177575 -0.0110801 0.0 
2.71101e-07 -1.8107e-09 0.0 
0.176538 -0.0113369 0.0 
0.172956 0.0222414 0.0 
0.948489 -0.311106 0.0 
0.798487 0.112645 0.0 
1.01245 -0.00290168 0.0 
0 0 0.0 
0.312388 0.00259566 0.0 
0.0572094 0.000262638 0.0 
0.411809 -0.0122449 0.0 
0.232494 -0.00572423 0.0 
0.0173732 -0.000586501 0.0 
1.00849 0 0.0 
0.10871 -0.0114248 0.0 
0.949273 0.299609 0.0 
0.0696636 0.00920407 0.0 
1.01139 -0.00150725 0.0 
0.0159632 -0.0025555 0.0 
0 0 0.0 
0.306548 0.00537764 0.0 
0.533621 -0.00935264 0.0 
0.989492 -0.311195 0.0 
0.0147079 0.000450814 0.0 
0.0596027 -0.00657484 0.0 
0.175684 -0.00392628 0.0 
0.00700046 -0.00108783 0.0 
0.822108 0.208893 0.0 
0.776836 -0.0603698 0.0 
0.054697 -0.00913342 0.0 
-2.79763e-127 -8.19274e-129 0.0 
0.990905 -0.322645 0.0 
0.891363 -0.00321466 0.0 
0.947064 0.308002 0.0 
0 0 0.0 
0.132754 0.0061483 0.0 
0 0 0.0 
0.634061 -0.0506473 0.0 
0.83904 0.204942 0.0 
0.0448634 -0.00773567 0.0 
1.02022 -0.221732 0.0 
0.937432 0.241904 0.0 
0.0426111 0.00785083 0.0 
0.244443 0.0256832 0.0 
1.03558 -0.063837 0.0 
1.0041 0.0341112 0.0 
1.00274 -0.00614076 0.0 
0.30114 0.0893433 0.0 
0.003925 0.000475533 0.0 
0 0 0.0 
0 0 0.0 
0.739958 0.0583743 0.0 
0.0257275 -0.00395404 0.0 
0.39104 0.211915 0.0 
0.000159376 -3.42557e-06 0.0 
0 0 0.0 
0.047167 -0.0063696 0.0 
0 0 0.0 
0.523591 0.0194278 0.0 
0.164151 0.00530998 0.0 
0.865272 -0.00184254 0.0 
0.802494 0.0375152 0.0 
0.0755271 -0.0189262 0.0 
0.157777 0.00102842 0.0 
0.0103561 -0.00083211 0.0 
0.563588 0.137147 0.0 
0.520506 -0.453527 0.0 
0.816198 0.365929 0.0 
1.00973 -0.000486349 0.0 
0.883785 -0.223969 0.0 
1.12277 0.0725822 0.0 
0.00297542 -0.000496493 0.0 
0.980024 0.0225763 0.0 
0.0727981 0.00806454 0.0 
1.01003 0.00129254 0.0 
0.253468 0.00265927 0.0 
6.6282e-06 -9.05539e-07 0.0 
0 0 0.0 
0.9489 -0.225379 0.0 
0.842935 0.0366828 0.0 
0.993421 0.000497062 0.0 
1.00001 0.000278745 0.0 
0.650216 0.0941459 0.0 
1.00778 0.19701 0.0 
0.093933 -0.0158595 0.0 
0.583645 -0.0373318 0.0 
0.814911 0.326166 0.0 
0.140904 -0.0138013 0.0 
4.7775e-09 -1.25479e-09 0.0 
0.853841 0.228097 0.0 
0.549027 0.0150256 0.0 
3.99611e-51 1.85321e-52 0.0 
1.0115 0.028141 0.0 
0.246024 0.0687923 0.0 
0.777094 0.00121142 0.0 
0.439219 -0.03361 0.0 
0.0877533 -0.0182041 0.0 
0.032567 -0.0128234 0.0 
0.585537 0.302803 0.0 
0.528947 -0.0139719 0.0 
0.934591 0.128739 0.0 
0.0969365 -0.00187735 0.0 
0.704563 0.148179 0.0 
1.00471 -0.0871728 0.0 
0.961649 -0.000452964 0.0 
0.111923 0.019597 0.0 
0.00102902 5.11487e-05 0.0 
0 0 0.0 
0.0146568 -0.00372153 0.0 
0.922643 -0.198004 0.0 
0.0165385 0.000641008 0.0 
0.209705 0.0182848 0.0 
1.0405 -0.238508 0.0 
0 0 0.0 
1.00727 -3.11787e-05 0.0 
1.0196 -0.116224 0.0 
0.122508 -0.0142573 0.0 
0 0 0.0 
0.951995 -0.245175 0.0 
0.517816 0.174522 0.0 
0.0318072 -0.0090781 0.0 
0 0 0.0 
0.47181 -0.437902 0.0 
0.00311725 -0.00022379 0.0 
0.607392 -0.189967 0.0 
1 0 0.0 
0.829199 0.0395495 0.0 
0.0839264 -0.0152754 0.0 
0.568515 0.0491734 0.0 
0.00275849 -0.000299196 0.0 
0.127089 0.0109377 0.0 
4.53754e-05 -3.67462e-06 0.0 
0.135072 0.00334801 0.0 
0.0645618 -0.012822 0.0 
0.00700074 -0.000577809 0.0 
0.0700328 -0.0186909 0.0 
0.706289 0.0905845 0.0 
0.201863 -0.0265079 0.0 
0 0 0.0 
0.906011 0.0969948 0.0 
0.144211 -0.0135669 0.0 
0.945072 0.139586 0.0 
0.90548 0.0613688 0.0 
0.0741441 -0.0132451 0.0 
1.32373e-07 2.11094e-08 0.0 
0.00764012 0.000223295 0.0 
0.00938098 0.000843098 0.0 
0.366027 0.00367041 0.0 
0.50276 0.00985781 0.0 
0.129989 -0.0198576 0.0 
0.115776 -0.0423746 0.0 
0.0412737 -4.24471e-06 0.0 
0 0 0.0 
0.46757 -0.0318416 0.0 
0 0 0.0 
0.34697 0.000390787 0.0 
0.298485 0.0567625 0.0 
0 0 0.0 
1.0084 0 0.0 
0.35624 0.0114876 0.0 
0.184105 0.0147916 0.0 
0.0567896 0.00299777 0.0 
0.15512 0.0161905 0.0 
0.475334 -0.0738674 0.0 
1 0 0.0 
0.478741 -0.0110294 0.0 
0.304228 -0.00869927 0.0 
0.177655 0.0114821 0.0 
0.0125417 9.24208e-05 0.0 
0.0595912 -0.00168446 0.0 
1.01631 -0.00506695 0.0 
0.0760804 -0.0120614 0.0 
0.176698 0.000639537 0.0 
0.138405 0.00352993 0.0 
0.564622 0.0400497 0.0 
0.721166 -0.0423661 0.0 
0.654902 0.0082383 0.0 
0 0 0.0 
0.0535636 0.00301709 0.0 
1.01061 -0.00099816 0.0 
0.224786 0.0146975 0.0 
0.00319801 -0.000593065 0.0 
0.850767 -0.000361735 0.0 
0.984194 0.0025145 0.0 
0.0249655 -0.000427141 0.0 
0.974153 -0.22729 0.0 
0.0183705 0.000708872 0.0 
0.596528 0.0126493 0.0 
0.736483 -0.000903077 0.0 
0.0466802 0.00152372 0.0 
0.0473451 0.00442484 0.0 
0.62077 0.0446044 0.0 
0.0277944 -0.00576771 0.0 
0.140467 -0.014854 0.0 
0.0207015 0.00141169 0.0 
0.00792217 -0.00253209 0.0 
0.866511 -0.0953588 0.0 
0.646857 0.0727373 0.0 
0.20419 0.0241842 0.0 
0 0 0.0 
0 0 0.0 
0.000172029 -3.27103e-05 0.0 
0.945718 -0.0453934 0.0 
0.0281226 -0.00124346 0.0 
0.177154 0.00464725 0.0 
0.00530663 3.2243e-05 0.0 
7.78554e-78 8.03752e-79 0.0 
0 0 0.0 
0.882347 -0.20231 0.0 
1.04701 -0.0218096 0.0 
0.209909 0.00322807 0.0 
0.456293 -0.295453 0.0 
0.000151363 -1.39868e-05 0.0 
1.00036 -0.010774 0.0 
0.806146 0.0778767 0.0 
0.350376 -0.103228 0.0 
0.327077 -0.00892811 0.0 
0.25753 0.0221259 0.0 
0.413368 0.0249543 0.0 
0.403591 0.0305613 0.0 
1.0023 -0.000825455 0.0 
1.0082 -0.000398814 0.0 
0.132786 -0.0176126 0.0 
0.192642 -0.0158317 0.0 
0.197912 -0.00236657 0.0 
1.05023 0.231245 0.0 
0.920008 0.0487019 0.0 
0.00497454 -0.00077565 0.0 
0.627815 0.359805 0.0 
0.885493 0.0127308 0.0 
0.0138005 -0.000395408 0.0 
0.781129 0.339404 0.0 
0.953085 -0.000635478 0.0 
1.00263 0 0.0 
2.47756e-07 -2.85373e-08 0.0 
1.06843 -0.225902 0.0 
0 0 0.0 
0 0 0.0 
0.00709873 -0.000788044 0.0 
0.921978 0.323179 0.0 
1.00705 0 0.0 
1.0094 -0.000728308 0.0 
0.932566 0.104686 0.0 
0.407037 0.0288846 0.0 
0.426578 0.0480387 0.0 
0.29876 0.0166327 0.0 
1.08464 0.165659 0.0 
0.651025 0.0239571 0.0 
0.338145 0.0666582 0.0 
0 0 0.0 
0 0 0.0 
0.443902 0.00272415 0.0 
0.850321 0.316936 0.0 
1.00852 9.84856e-05 0.0 
0.597404 0.342565 0.0 
0.134473 -0.01366 0.0 
0.0127705 -0.00130697 0.0 
1.00915 -0.000230548 0.0 
0.0507425 -0.0125916 0.0 
0.813535 -0.0191159 0.0 
0.761471 -0.433096 0.0 
0.00549993 -0.000837415 0.0 
0.00218709 -0.000181637 0.0 
0 0 0.0 
0 0 0.0 
0.817149 0.0992597 0.0 
0 0 0.0 
0 0 0.0 
0.999404 -0.00195038 0.0 
0.0408847 0.00102161 0.0 
0.747398 0.354504 0.0 
1.00972 -0.00167794 0.0 
0.63191 0.218308 0.0 
1.03673 0.128271 0.0 
0.998181 -0.119204 0.0 
0.879411 -0.120204 0.0 
0.186593 0.0202386 0.0 
0.458002 -0.00858609 0.0 
0.228264 0.0120906 0.0 
1.01012 -0.000277758 0.0 
0.352674 0.0114096 0.0 
0.845414 -0.368396 0.0 
0 0 0.0 
0.000535709 -5.03663e-05 0.0 
1.05352 -0.176788 0.0 
0.00120716 -0.000191342 0.0 
1.00856 0.000757938 0.0 
0.637817 0.00511981 0.0 
0 0 0.0 
0.657527 -0.00643229 0.0 
0.250049 0.00590494 0.0 
0.611992 0.322546 0.0 
1.01159 0.00016927 0.0 
0.00444705 -0.000457039 0.0 
0.921235 -0.140338 0.0 
0.371212 -0.0206176 0.0 
0.338397 0.0291481 0.0 
0.296711 -0.0234208 0.0 
0 0 0.0 
0.675052 0.293689 0.0 
0 0 0.0 
0 0 0.0 
0.047951 -0.00244837 0.0 
0.304431 -0.0102533 0.0 
0.669995 -0.0405731 0.0 
0.413892 0.00671113 0.0 
0 0 0.0 
0 0 0.0 
0.00466022 0.000314193 0.0 
0.893638 0.0176957 0.0 
0.0217703 0.000967609 0.0 
0.663241 0.372829 0.0 
0.577112 -7.6796e-05 0.0 
0.297437 -0.00387357 0.0 
0.121487 -0.00572418 0.0 
0.741702 0.328678 0.0 
0.00416617 -0.000550595 0.0 
1.09964 0.0968908 0.0 
1.01044 -0.00552963 0.0 
0.12103 0.0139497 0.0 
0.541239 -0.342255 0.0 
0 0 0.0 
0 0 0.0 
3.05108e-05 2.6613e-06 0.0 
0.402833 0.206434 0.0 
0.192628 0.014836 0.0 
0.381268 0.0181432 0.0 
0.677857 0.223226 0.0 
0.754398 0.09295 0.0 
0 0 0.0 
0.541027 -0.0110826 0.0 
0.504752 -0.0510487 0.0 
5.51303e-06 -3.64592e-07 0.0 
0 0 0.0 
0.0372674 -0.00289684 0.0 
0 0 0.0 
0.91867 0.0303493 0.0 
0.00304417 -0.000381169 0.0 
0 0 0.0 
1.0066 -0.134018 0.0 
0.132237 0.0173959 0.0 
0.999908 0.000973916 0.0 
0.849057 0.176136 0.0 
0 0 0.0 
0.512001 -0.0968806 0.0 
0.604694 -0.2777 0.0 
0.722436 0.260033 0.0 
0.590928 -0.320999 0.0 
1.00948 5.5097e-06 0.0 
0.285942 -0.0081124 0.0 
0.426619 -0.00215287 0.0 
0.771453 0.100555 0.0 
0.107022 -0.011357 0.0 
0 0 0.0 
0.0889283 -0.00970964 0.0 
0.0139689 0.00106159 0.0 
5.21129e-05 1.94255e-05 0.0 
0.851071 0.35483 0.0 
0.885819 0.345944 0.0 
0 0 0.0 
0 0 0.0 
0.0108532 -5.93507e-05 0.0 
0 0 0.0 
0.776596 0.00195126 0.0 
0.112344 0.0162031 0.0 
1.06236 -0.0496425 0.0 
0.664533 0.142288 0.0 
0.757157 -0.0977104 0.0 
0.984068 -0.0599667 0.0 
1.09896 0.0462641 0.0 
1.00972 1.06469e-05 0.0 
0.0845133 -0.00632287 0.0 
0.811732 -0.151558 0.0 
1.02231 -0.171652 0.0 
0.603906 0.0166018 0.0 
0.0149021 0.00110846 0.0 
0.0433334 0.00702146 0.0 
0 0 0.0 
0 0 0.0 
0.0666115 -0.000813382 0.0 
0 0 0.0 
0.951925 -0.0141394 0.0 
0.815524 -0.43455 0.0 
0.113191 -0.0226435 0.0 
0.814459 -0.0933821 0.0 
0.357903 0.00640005 0.0 
0.226645 0.000240002 0.0 
1.02151 0.222565 0.0 
0.756573 -0.0249077 0.0 
0.307461 0.0120791 0.0 
0 0 0.0 
0 0 0.0 
0.959692 0.0798031 0.0 
0.744502 0.148319 0.0 
0.478457 -0.0394931 0.0 
0 0 0.0 
0.202371 -0.0182346 0.0 
0.419396 0.0233747 0.0 
1.02034 0.0126747 0.0 
0.939636 -0.0631654 0.0 
0.491944 -0.080832 0.0 
0.766557 0.280544 0.0 
0.999581 -0.000847514 0.0 
0.71106 0.254303 0.0 
0 0 0.0 
0 0 0.0 
0.238623 -0.0157644 0.0 
0 0 0.0 
0.00588218 -0.000857372 0.0 
0.11171 0.0696217 0.0 
0 0 0.0 
0 0 0.0 
0.749166 0.225521 0.0 
0.140391 0.00632539 0.0 
0 0 0.0 
0.680654 0.149028 0.0 
0.333324 -0.0111226 0.0 
2.22209e-43 1.08674e-44 0.0 
0.877794 0.26155 0.0 
0.0076884 -0.000641082 0.0 
1.01116 -0.00124485 0.0 
0.709309 0.177444 0.0 
1.05112 -0.0160669 0.0 
0.198319 -0.0187751 0.0 
0.462853 -0.436424 0.0 
0 0 0.0 
1.00876 0 0.0 
0.00537339 0.000415786 0.0 
0.422159 0.204353 0.0 
1 0 0.0 
0.0112137 -0.00117507 0.0 
0.97172 -0.178102 0.0 
0.622452 0.195349 0.0 
0.0797892 -0.10075 0.0 
0.846419 -0.0492077 0.0 
0.17954 -0.0511568 0.0 
1.12069 0.123474 0.0 
0.763183 -0.328022 0.0 
0.778113 -0.134942 0.0 
0.80812 -0.320785 0.0 
0.833065 -0.364184 0.0 
0 0 0.0 
0.584785 0.0134771 0.0 
6.24026e-08 1.56449e-09 0.0 
0.881582 -0.389991 0.0 
0.013929 0.000962157 0.0 
0.649729 0.0494406 0.0 
0.00201642 -0.000258958 0.0 
0 0 0.0 
0.67283 0.0688611 0.0 
0.759766 0.0554485 0.0 
0 0 0.0 
0.621273 -0.0282375 0.0 
0.87181 -0.399509 0.0 
0.30025 -0.00609787 0.0 
0.633103 -0.102548 0.0 
0.990677 0.223304 0.0 
0.527763 -0.00357788 0.0 
1.01045 -0.00257539 0.0 
0 0 0.0 
0.996062 -0.00667399 0.0 
0.324298 0.0119521 0.0 
0.00549297 0.00040197 0.0 
0.282612 0.022458 0.0 
0 0 0.0 
1.00025 0.000629525 0.0 
0 0 0.0 
0 0 0.0 
0 0 0.0 
0.210422 0.0252313 0.0 
0.284577 -0.0143285 0.0 
1.01022 -0.000707019 0.0 
1.00899 0.000157532 0.0 
0.206462 -0.0114145 0.0 
0 0 0.0 
0.105743 0.00474103 0.0 
0.000619212 8.67951e-05 0.0 
0.878525 0.190128 0.0 
0 0 0.0 
0.763451 0.0802333 0.0 
0.137235 0.00305161 0.0 
0.68059 -0.0791863 0.0 
0.815069 0.0143248 0.0 
1.005 -0.0478529 0.0 
0.00694216 0.00211471 0.0 
0 0 0.0 
0.506363 0.0762904 0.0 
0.994014 0.0597885 0.0 
0.025896 -0.00261834 0.0 
0.719852 0.127843 0.0 
5.6771e-43 3.17159e-45 0.0 
0.874891 0.337462 0.0 
0.259808 0.0228041 0.0 
0.774308 0.123748 0.0 
0 0 0.0 
0.661707 -0.0217369 0.0 
0.0906578 0.00331718 0.0 
0.678318 0.0613519 0.0 
0.938541 0.291139 0.0 
0 0 0.0 
0.867674 0.15849 0.0 
0.743549 0.110678 0.0 
0.914116 0.330313 0.0 
0.886037 0.322133 0.0 
0.0883697 0.0346214 0.0 
0 0 0.0 
0 0 0.0 
0.877289 0.347558 0.0 
0.934441 -0.329071 0.0 
0.00755215 0.000743202 0.0 
0.018316 0.000641728 0.0 
1.00789 -0.000267075 0.0 
0.0515297 0.00213026 0.0 
0.179953 0.00979306 0.0 
0 0 0.0 
0.079206 -0.0124055 0.0 
0.253166 0.0303398 0.0 
0.638918 0.0531885 0.0 
0 0 0.0 
0.661331 -0.0513942 0.0 
0.229615 0.00379605 0.0 
0 0 0.0 
0 0 0.0 
1.03674 0.0513106 0.0 
0.976209 0.0106532 0.0 
1.09484 -0.151926 0.0 
1.00139 0.00299007 0.0 
0.196658 -0.216722 0.0 
0.319889 -2.08165e-05 0.0 
0.918288 0.0789983 0.0 
0.918649 -0.0229404 0.0 
0.189441 -0.0160649 0.0 
0.00946867 -0.000586992 0.0 
1.05901 0.151891 0.0 
0.459169 0.023039 0.0 
0.288167 -0.0149623 0.0 
0.651789 0.303982 0.0 
0.00596655 -0.000923384 0.0 
1.00686 0 0.0 
0.349859 -0.00929493 0.0 
0.000996136 6.56152e-05 0.0 
1.0116 -0.0721225 0.0 
0.254771 0.005642 0.0 
1.01787 0.274337 0.0 
0.819127 0.0939897 0.0 
1.07944 -0.00110368 0.0 
0.971347 -0.000284152 0.0 
0.0464116 -0.000656443 0.0 
0 0 0.0 
0.231666 0.00187235 0.0 
0.00991274 0.000227091 0.0 
0.984318 -0.0467116 0.0 
0.482761 -0.0217888 0.0 
0.261373 0.0141825 0.0 
0.343661 0.0615875 0.0 
1.00103 0.00320453 0.0 
0.885417 -0.0301594 0.0 
0.195462 0.0101479 0.0 
0.041754 0.0050174 0.0 
3.508e-05 4.90112e-07 0.0 
0 0 0.0 
3.46504e-13 2.04953e-14 0.0 
0.667884 -0.123199 0.0 
0.898901 -0.115489 0.0 
0.424418 0.0126369 0.0 
0.847883 0.339002 0.0 
0.85316 0.274647 0.0 
0.000312766 -1.97593e-05 0.0 
0.12837 -0.00449915 0.0 
0.889241 -0.207936 0.0 
0.968454 -0.0471058 0.0 
1.03426 0.137231 0.0 
0.125221 -0.0179678 0.0 
0 0 0.0 
0.976426 -0.129827 0.0 
0.365452 -0.0324289 0.0 
0.998357 -0.239751 0.0 
0.902707 0.337677 0.0 
0.0187397 -0.000736536 0.0 
0.928831 0.307728 0.0 
0.276186 -0.00453966 0.0 
0.463066 0.0693504 0.0 
0.0323204 -0.000610051 0.0 
0 0 0.0 
3.32346e-05 -2.10652e-05 0.0 
0.733052 0.00453538 0.0 
1.00162 -0.00547862 0.0 
0.821084 0.30293 0.0 
0.953464 -0.204983 0.0 
0.629981 0.119331 0.0 
0.539049 -0.00134423 0.0 
0.99963 -0.000246024 0.0 
0.00539938 0.000387821 0.0 
0.807372 -0.0709469 0.0 
-6.88858e-205 4.22858e-206 0.0 
0.0272195 -0.00156968 0.0 
1.00941 -0.000385425 0.0 
0.00738134 0.000310353 0.0 
0.00725414 0.000611082 0.0 
1.00845 0.0723751 0.0 
1.00815 -0.000429872 0.0 
1.0007 -0.00118637 0.0 
1.01575 0.00611828 0.0 
0 0 0.0 
1.0152 0.0122332 0.0 
1.00745 0 0.0 
0.00418279 -0.000563183 0.0 
0.0229706 0.000616501 0.0 
0 0 0.0 
0.0190041 4.02003e-05 0.0 
0.373861 -0.00175263 0.0 
0.00617222 0.000237886 0.0 
0.633323 0.0765026 0.0 
0.0221252 0.000138728 0.0 
1.00837 0.278913 0.0 
0.0431972 0.00128521 0.0 
0.919264 0.275167 0.0 
0.596734 0.000905055 0.0 
1.0076 0 0.0 
1.006 0.267567 0.0 
1.07513 0.14447 0.0 
0.960975 0.287842 0.0 
0.586919 -0.12394 0.0 
0.835933 0.258808 0.0 
0 0 0.0 
0.541763 -0.0491066 0.0 
1.02126 -0.148287 0.0 
0.663489 -0.0639394 0.0 
0.867441 -0.187023 0.0 
1.01438 0.25576 0.0 
1.00903 0 0.0 
0.867229 0.281523 0.0 
9.51087e-07 -4.62829e-08 0.0 
0.101743 0.00569461 0.0 
0.901429 0.211629 0.0 
0.554701 -0.0989861 0.0 
0 0 0.0 
0.703543 -0.0580012 0.0 
0.00211366 -0.000362303 0.0 
0.784649 0.260241 0.0 
0.975521 -0.086787 0.0 
1 0 0.0 
0.0832685 0.0095129 0.0 
1.00035 0.000418378 0.0 
0.889525 -0.174366 0.0 
1.05074 -0.0122051 0.0 
0 0 0.0 
1.11383 0.0572197 0.0 
0.0593521 -0.00682788 0.0 
0.923314 0.256373 0.0 
1.03124 -0.0272306 0.0 
0 0 0.0 
0.463658 0.00213143 0.0 
1.01024 0.000963939 0.0 
0.145252 0.00766593 0.0 
0.249913 -0.00468912 0.0 
1.08493 0.0526277 0.0 
0 0 0.0 
0.0086016 0.000698324 0.0 
1.00894 0 0.0 
0.617965 0.00066458 0.0 
0 0 0.0 
0.970375 -0.0664476 0.0 
0.402366 0.17353 0.0 
0 0 0.0 
0.653136 -0.0181018 0.0 
0.268166 0.0246491 0.0 
0.0104717 0.00118079 0.0 
0 0 0.0 
0.57331 0.0982285 0.0 
0.38291 0.0447712 0.0 
0 0 0.0 
0.139087 -0.00870663 0.0 
1.00958 -0.000262807 0.0 
0.951221 0.0453739 0.0 
0.880214 0.096576 0.0 
0.0153428 -0.00106996 0.0 
1.22312e-40 9.35475e-42 0.0 
0.107221 0.00577592 0.0 
0.183314 0.0106614 0.0 
0.970785 0.163955 0.0 
0.550373 -0.00783167 0.0 
0 0 0.0 
3.92006e-08 1.55282e-09 0.0 
0.83135 -0.0381289 0.0 
0 0 0.0 
0.200551 0.00522646 0.0 
0.897759 0.187903 0.0 
1.00768 0.240626 0.0 
1.10739 0.142608 0.0 
8.87527e-07 4.13346e-08 0.0 
0.791598 0.167829 0.0 
0.378947 0.0271981 0.0 
0 0 0.0 
0.679421 0.000233318 0.0 
0.372133 -0.0272158 0.0 
1.00954 0.000207944 0.0 
0 0 0.0 
0.978964 -0.0143337 0.0 
0.930678 0.0958268 0.0 
0.00419764 0.000482325 0.0 
0.49378 -0.0381274 0.0 
0.00466052 0.000221033 0.0 
0 0 0.0 
0.42876 -0.0153296 0.0 
1.58575e-39 1.56489e-40 0.0 
0.862754 0.011309 0.0 
0 0 0.0 
0.892284 0.117701 0.0 
0.995194 -0.00136228 0.0 
0.00782869 0.000527928 0.0 
1.06807 -0.146942 0.0 
0.51284 -0.0230317 0.0 
0.656439 -0.0016337 0.0 
0.0594782 0.00291125 0.0 
0 0 0.0 
1.0315 -0.24961 0.0 
0.926351 0.157942 0.0 
1.00082 0.0069495 0.0 
0.0363265 -0.0026148 0.0 
1.00003 0.000410302 0.0 
1.01076 -0.00123637 0.0 
0.34127 -0.0112815 0.0 
0.901691 0.106508 0.0 
1.06665 -0.0344438 0.0 
0.50463 0.0406732 0.0 
0.0306289 0.00286569 0.0 
0 0 0.0 
0.862605 -0.134805 0.0 
1 0 0.0 
0.0573904 -0.00797974 0.0 
0.663254 -0.00115612 0.0 
0 0 0.0 
0.802527 0.00190146 0.0 
0.00234859 -0.000362522 0.0 
0 0 0.0 
0.504118 0.000987868 0.0 
0.0295717 0.000738399 0.0 
1.09064 -0.146477 0.0 
0.815262 -0.0916679 0.0 
0 0 0.0 
0 0 0.0 
2.82869e-05 -4.51233e-06 0.0 
0.885098 0.0569864 0.0 
1.01587 -0.00337162 0.0 
0.261627 -0.000378315 0.0 
0.0369053 -0.000352019 0.0 
1.00015 0.024234 0.0 
0.123027 -0.00522666 0.0 
0 0 0.0 
0.00248746 -0.000230923 0.0 
0.0371698 -0.00507751 0.0 
0.108228 -0.0567555 0.0 
0.977153 -0.128544 0.0 
0.0167106 0.00129069 0.0 
0.789375 -0.0929884 0.0 
0.159128 0.00851393 0.0 
0.539454 0.00813122 0.0 
0.472221 0.00262212 0.0 
1.00939 -0.286785 0.0 
0.0931727 -0.162087 0.0 
0 0 0.0 
1.01713 0.148595 0.0 
0.0666942 0.00309049 0.0 
0 0 0.0 
1.01025 -0.00264237 0.0 
0 0 0.0 
0.907124 0.191739 0.0 
1.05091 0.217619 0.0 
1.08352 0.191119 0.0 
0.976857 -0.339553 0.0 
0.259322 0.0440795 0.0 
0.596634 0.00347899 0.0 
0.996874 -0.000968861 0.0 
0 0 0.0 
0.696669 0.108579 0.0 
0.765698 -0.0197224 0.0 
0.208578 -0.00353874 0.0 
0.0184775 0.00120554 0.0 
0.144394 0.0437036 0.0 
0.699941 0.0163764 0.0 
0.293016 -0.0347376 0.0 
1.0011 0.00236986 0.0 
1.01176 -0.00171913 0.0 
0.7373 0.0648017 0.0 
0 0 0.0 
0.00571512 0.000282216 0.0 
0.495855 -0.205069 0.0 
0.969576 0.203146 0.0 
0.998427 0.000347611 0.0 
0.0184187 0.000860672 0.0 
0.738645 -0.230834 0.0 
0.271289 -0.075308 0.0 
0.315126 -0.0196954 0.0 
0.77023 -0.218101 0.0 
0.156284 0.00677208 0.0 
0.843591 -0.145362 0.0 
-2.71884e-165 1.12937e-166 0.0 
1.00224 0.00825866 0.0 
1.12503 0.0580671 0.0 
1.00965 -0.00047098 0.0 
0 0 0.0 
0 0 0.0 
0.445876 0.0482201 0.0 
0.126355 0.00660938 0.0 
0.0030146 -0.00013723 0.0 
0 0 0.0 
0.90394 -0.244676 0.0 
0 0 0.0 
0 0 0.0 
0 0 0.0 
0.930775 -0.0580917 0.0 
0.893495 0.0777903 0.0 
0.137743 -0.0803157 0.0 
0.27124 -0.00145429 0.0 
0.830378 -0.255722 0.0 
0.245629 -0.258419 0.0 
0.00675645 -0.000455364 0.0 
0 0 0.0 
0 0 0.0 
0.885503 0.235329 0.0 
0.00347226 -0.000689872 0.0 
6.9078e-69 1.56959e-69 0.0 
0.00981985 0.000966442 0.0 
1.00096 -0.0325268 0.0 
1.00001 5.0295e-05 0.0 
1.00998 -0.00062167 0.0 
0.921706 -0.338501 0.0 
0 0 0.0 
0.108458 0.0118623 0.0 
0.472932 0.0479424 0.0 
0.982657 -0.0573096 0.0 
0.78369 0.185429 0.0 
0.981362 -0.107061 0.0 
0.31712 -0.00111163 0.0 
1.06834 -0.179683 0.0 
0.381208 -0.000988961 0.0 
0.107975 -0.00477517 0.0 
2.42258e-42 -1.27801e-43 0.0 
0 0 0.0 
1.01994 0.233467 0.0 
0.617225 -0.150943 0.0 
2.85413e-08 -2.50668e-09 0.0 
0.932774 -0.366669 0.0 
1.00941 0.000522812 0.0 
0.952713 -0.00386649 0.0 
0.383331 0.0364604 0.0 
0.552229 0.0026592 0.0 
0.517815 0.0731709 0.0 
0.0100564 0.000811002 0.0 
0.027172 -0.00713211 0.0 
0 0 0.0 
1.00898 -0.000940922 0.0 
0.025669 -0.0134282 0.0 
0.999979 0.000236384 0.0 
0.0043872 0.000236322 0.0 
0 0 0.0 
1.00946 -0.000452539 0.0 
0.965338 -0.0317852 0.0 
0.799705 0.138822 0.0 
0 0 0.0 
1.01004 -0.000878357 0.0 
0.519334 0.132508 0.0 
0.0465558 -0.00883704 0.0 
0.965178 -0.29701 0.0 
0.605109 0.0255479 0.0 
0.698021 0.0456312 0.0 
0.00645189 0.000285493 0.0 
0.762602 -0.00190447 0.0 
0.349138 0.0713743 0.0 
0.954685 -0.0427778 0.0 
5.00204e-46 3.68597e-47 0.0 
2.853e-160 2.31196e-161 0.0 
1.04543 0.250201 0.0 
0.237784 -0.00741386 0.0 
0.012273 -0.0078473 0.0 
0 0 0.0 
0.521176 -0.30469 0.0 
0 0 0.0 
1.00952 0 0.0 
0.0674515 -0.00482737 0.0 
0 0 0.0 
0 0 0.0 
0 0 0.0 
0 0 0.0 
0 0 0.0 
0 0 0.0 
1.04703 -0.0379953 0.0 