<VTKFile type="UnstructuredGrid" version="0.1" byte_order="LittleEndian">
  <UnstructuredGrid>
    <Piece NumberOfPoints="14381" NumberOfCells="28610">
      <Points>
        <DataArray type = "Float64" NumberOfComponents="3" format="ascii">
0 0 0.0 
14 0 0.0 
14 8 0.0 
0 8 0.0 
4.6522 4.03171 0.0 
4.86654 4.02594 0.0 
4.88427 4.01008 0.0 
4.41294 4.07303 0.0 
4.68552 4.03646 0.0 
4.22301 3.95132 0.0 
4.84593 3.98275 0.0 
4.41096 3.95874 0.0 
4.7282 4.05386 0.0 
4.92694 3.98938 0.0 
4.85412 3.98922 0.0 
4.71574 3.98059 0.0 
4.70976 3.95697 0.0 
4.6955 4.06287 0.0 
6.34819 4.7978 0.0 
4.65295 4.06077 0.0 
4.50334 4.03962 0.0 
4.13122 3.99648 0.0 
4.46951 3.96348 0.0 
5.97959 4.07513 0.0 
8.40909 0 0.0 
5.46236 3.6689 0.0 
4.05417 4.06939 0.0 
6.17266 4.18311 0.0 
4.69289 4.05287 0.0 
4.35699 3.96526 0.0 
4.69313 4.07082 0.0 
4.66425 4.16665 0.0 
5.03458 4.02942 0.0 
4.49719 3.96841 0.0 
4.30865 3.96679 0.0 
5.24715 4.20258 0.0 
4.09093 4.02505 0.0 
4.06288 4.03688 0.0 
4.50933 3.97072 0.0 
4.12813 3.96778 0.0 
4.68094 4.03753 0.0 
4.72442 4.00352 0.0 
4.46191 4.06446 0.0 
4.32509 3.9601 0.0 
4.08237 4.02026 0.0 
4.69989 4.06131 0.0 
5.41622 4.0491 0.0 
4.45139 4.07933 0.0 
4.7117 4.00452 0.0 
4.57267 4.06369 0.0 
4.9003 3.98858 0.0 
5.89854 3.94713 0.0 
4.62196 3.97929 0.0 
4.13626 3.94339 0.0 
5.02963 3.97587 0.0 
4.48275 3.95261 0.0 
4.18655 3.97151 0.0 
4.51194 4.04817 0.0 
4.40529 3.9531 0.0 
4.01365 3.94831 0.0 
4.4226 3.98982 0.0 
4.82896 4.02761 0.0 
4.18825 3.9386 0.0 
4.00248 4.02947 0.0 
5.68837 4.25469 0.0 
4.05789 4.06544 0.0 
4.10075 4.03591 0.0 
4.18988 3.93412 0.0 
4.71489 4.03655 0.0 
4.60238 3.97454 0.0 
4.65181 4.08946 0.0 
4.88889 4.02105 0.0 
4.09973 4.06883 0.0 
4.47979 4.06013 0.0 
4.33113 3.95575 0.0 
4.09443 4.06582 0.0 
4.09324 4.07263 0.0 
4.48463 4.0392 0.0 
4.3123 3.96591 0.0 
4.47406 3.96158 0.0 
5.93012 3.65647 0.0 
5.15415 4.0269 0.0 
4.92641 4.01695 0.0 
4.51037 3.96639 0.0 
4.88422 3.97834 0.0 
4.88314 3.98835 0.0 
4.48504 4.07583 0.0 
4.51275 3.99481 0.0 
4.75913 4.02232 0.0 
4.74896 4.04541 0.0 
4.91143 4.00735 0.0 
4.71437 4.04293 0.0 
4.02128 4.02394 0.0 
4.00978 3.98877 0.0 
4.08487 4.02497 0.0 
5.01575 3.97366 0.0 
3.99368 4.01426 0.0 
4.50671 3.9619 0.0 
4.59063 4.04353 0.0 
4.14408 3.98765 0.0 
4.09044 3.97202 0.0 
4.62858 3.97573 0.0 
4.82497 4.02701 0.0 
4.47721 4.09057 0.0 
4.8338 4.02933 0.0 
4.47638 4.14538 0.0 
4.47868 3.9443 0.0 
4.53883 4.04725 0.0 
4.97433 4.00955 0.0 
4.7979 3.9897 0.0 
4.49201 4.02599 0.0 
4.10081 4.06299 0.0 
4.51692 3.99336 0.0 
4.09424 4.05815 0.0 
4.55116 4.00133 0.0 
4.34713 3.96273 0.0 
5.005 4.02515 0.0 
4.21788 3.91237 0.0 
4.18747 4.08319 0.0 
4.50199 3.99635 0.0 
5.44395 3.70586 0.0 
5.39436 4.67597 0.0 
4.23558 3.96529 0.0 
4.49892 3.99038 0.0 
4.47073 4.06481 0.0 
4.64644 4.05988 0.0 
4.46332 4.09059 0.0 
4.28799 3.98149 0.0 
4.54896 4.07106 0.0 
4.50289 3.96084 0.0 
4.7697 4.01511 0.0 
4.97627 3.97995 0.0 
4.08449 3.93894 0.0 
5.76694 4.33485 0.0 
4.88061 3.97973 0.0 
4.99515 4.03042 0.0 
4.29773 3.96986 0.0 
5.04588 4.00733 0.0 
4.6878 3.99637 0.0 
4.53766 3.95327 0.0 
4.53038 4.08552 0.0 
4.42503 4.05228 0.0 
4.8889 4.01911 0.0 
4.64561 3.95429 0.0 
4.55972 3.96909 0.0 
4.18979 3.97004 0.0 
4.49431 3.99669 0.0 
4.66767 4.05525 0.0 
4.17786 4.07881 0.0 
4.43188 4.04796 0.0 
5.08608 3.99021 0.0 
4.90003 4.00352 0.0 
4.49714 3.98561 0.0 
5.87997 4.17517 0.0 
4.9055 3.9764 0.0 
4.46517 3.9625 0.0 
4.08831 4.06631 0.0 
5.00776 3.98134 0.0 
5.91929 4.00331 0.0 
4.63894 3.96651 0.0 
4.24404 3.96794 0.0 
4.80593 3.98908 0.0 
5.09784 4.02735 0.0 
4.69246 3.98997 0.0 
4.15663 3.95455 0.0 
4.96925 4.01607 0.0 
4.98126 4.01712 0.0 
4.12663 3.98302 0.0 
4.84375 4.00866 0.0 
4.31918 3.95092 0.0 
3.71721 4.02732 0.0 
4.41889 4.13052 0.0 
4.40235 4.12784 0.0 
4.52576 4.0968 0.0 
4.61966 4.0571 0.0 
6.08079 4.0005 0.0 
4.19141 4.04079 0.0 
3.97234 4.03785 0.0 
4.54054 4.08301 0.0 
4.85299 4.03745 0.0 
4.51038 4.08179 0.0 
4.18416 3.91428 0.0 
4.15811 3.91447 0.0 
4.66382 3.97708 0.0 
4.6141 3.97847 0.0 
4.98028 4.02023 0.0 
4.11644 4.05169 0.0 
4.17071 3.92446 0.0 
4.28606 4.074 0.0 
5.05601 4.02191 0.0 
4.75369 3.96763 0.0 
4.10531 3.94176 0.0 
4.69942 4.04857 0.0 
4.98974 4.00526 0.0 
4.99603 3.97729 0.0 
4.87515 4.03895 0.0 
4.87183 4.04216 0.0 
4.98978 4.00891 0.0 
4.16284 3.94858 0.0 
3.96094 4.23329 0.0 
5.02649 4.01958 0.0 
5.54871 4.59273 0.0 
4.05664 3.81012 0.0 
4.39865 4.07858 0.0 
4.84739 4.00811 0.0 
4.0089 3.92893 0.0 
4.31666 3.96498 0.0 
5.43609 4.5831 0.0 
5.02589 3.97071 0.0 
3.23476 0 0.0 
4.23547 3.96772 0.0 
4.24915 4.05618 0.0 
4.61758 3.98141 0.0 
4.44068 4.07925 0.0 
4.86277 4.01565 0.0 
4.9536 4.03904 0.0 
4.70197 3.98173 0.0 
4.12396 3.96671 0.0 
4.91407 3.97313 0.0 
4.44837 4.00544 0.0 
4.46005 3.97655 0.0 
4.92026 4.02508 0.0 
4.56058 3.85711 0.0 
4.46357 3.96979 0.0 
4.2671 4.03908 0.0 
4.63886 3.95718 0.0 
4.72225 4.04658 0.0 
5.04611 4.02286 0.0 
4.33094 4.06556 0.0 
4.84421 3.99931 0.0 
4.9416 4.00388 0.0 
6.05007 4.05656 0.0 
4.92874 4.02972 0.0 
5.01943 4.02273 0.0 
3.96199 4.03038 0.0 
4.9337 4.028 0.0 
5.07311 3.9842 0.0 
4.8015 4.0203 0.0 
5.04855 4.04394 0.0 
4.7024 3.98888 0.0 
4.14372 3.94807 0.0 
5.07835 4.01031 0.0 
4.40737 4.07687 0.0 
5.05772 4.01296 0.0 
5.01673 4.00304 0.0 
4.98975 4.02392 0.0 
5.85847 4.07973 0.0 
5.00537 3.98803 0.0 
4.49046 4.05116 0.0 
5.1002 4.04063 0.0 
4.8446 4.01797 0.0 
5.79718 4.24473 0.0 
4.4038 3.95981 0.0 
4.69343 3.99781 0.0 
4.90736 3.98625 0.0 
4.04922 4.03706 0.0 
4.69237 4.00387 0.0 
4.18827 4.09484 0.0 
5.11479 3.98543 0.0 
4.40384 3.97076 0.0 
5.05402 4.03163 0.0 
4.06918 4.04536 0.0 
5.03851 4.01862 0.0 
4.01743 3.98557 0.0 
5.09724 4.01669 0.0 
4.42014 4.0675 0.0 
4.30162 4.08087 0.0 
4.11728 4.04788 0.0 
4.6339 3.96597 0.0 
4.99109 4.02807 0.0 
4.96462 4.01415 0.0 
4.82443 3.98423 0.0 
4.49653 3.95764 0.0 
5.92508 4.65355 0.0 
4.90226 4.03143 0.0 
4.34392 3.98283 0.0 
5.0636 3.98872 0.0 
4.19482 4.06365 0.0 
4.30319 4.0702 0.0 
3.98273 4.00621 0.0 
5.05294 4.00576 0.0 
4.89038 3.98706 0.0 
5.03244 3.9826 0.0 
4.6685 3.98123 0.0 
4.03232 3.98548 0.0 
4.94559 4.02606 0.0 
4.98107 3.97981 0.0 
4.8972 3.97748 0.0 
4.95086 4.02282 0.0 
4.89535 4.02846 0.0 
5.10865 4.0171 0.0 
5.03617 4.00712 0.0 
5.12752 4.00468 0.0 
4.98218 4.02738 0.0 
5.07266 3.99515 0.0 
5.13988 4.01531 0.0 
4.07878 3.96904 0.0 
3.95046 4.00001 0.0 
4.43149 4.08723 0.0 
4.87308 4.04686 0.0 
5.93175 4.51683 0.0 
4.87669 3.98089 0.0 
5.0529 3.99699 0.0 
4.80397 4.01022 0.0 
4.88448 4.03749 0.0 
4.06286 3.94631 0.0 
5.05185 3.9887 0.0 
5.06365 4.004 0.0 
5.15402 3.98655 0.0 
4.33967 3.98702 0.0 
4.71996 3.97872 0.0 
5.81776 3.9702 0.0 
4.06956 4.00859 0.0 
4.62339 4.03007 0.0 
3.99138 4.00095 0.0 
5.77171 4.61002 0.0 
4.57419 4.05881 0.0 
4.66183 3.95883 0.0 
4.13014 4.05687 0.0 
5.87526 3.59707 0.0 
5.23109 4.43436 0.0 
4.0765 3.98203 0.0 
4.91702 3.96535 0.0 
4.69443 3.97421 0.0 
4.8557 4.04361 0.0 
3.99448 4.02842 0.0 
4.30362 4.06762 0.0 
4.29586 4.07141 0.0 
5.15502 4.01291 0.0 
4.24824 3.98513 0.0 
4.77025 4.04846 0.0 
4.07474 3.9439 0.0 
4.89678 4.00895 0.0 
4.85053 4.04616 0.0 
4.09853 4.04855 0.0 
4.98463 4.01475 0.0 
4.36068 3.97047 0.0 
4.09969 3.96438 0.0 
4.47581 3.97414 0.0 
5.00134 4.00081 0.0 
4.21298 3.9048 0.0 
4.66535 3.98024 0.0 
4.05147 3.97406 0.0 
4.42248 4.06575 0.0 
6.21401 3.11929 0.0 
5.65704 3.72876 0.0 
4.81616 4.05284 0.0 
4.2896 4.04796 0.0 
5.01224 3.97834 0.0 
4.36125 4.07323 0.0 
4.52975 4.06227 0.0 
4.47649 4.0639 0.0 
4.68875 3.99403 0.0 
5.00415 4.02111 0.0 
4.40436 4.07369 0.0 
4.82176 4.00618 0.0 
4.70218 4.00333 0.0 
4.30035 4.06692 0.0 
4.69935 3.9935 0.0 
4.86305 4.00084 0.0 
4.55972 4.05072 0.0 
4.83556 3.98119 0.0 
4.83066 4.01113 0.0 
4.88429 4.04749 0.0 
4.68166 3.98324 0.0 
4.84539 4.04121 0.0 
4.65867 3.9645 0.0 
4.21312 4.06893 0.0 
4.22396 4.06826 0.0 
4.64296 4.07485 0.0 
4.71455 3.97583 0.0 
4.07988 3.99636 0.0 
4.0601 4.03583 0.0 
5.03772 3.96022 0.0 
4.72204 4.04938 0.0 
4.0178 3.97715 0.0 
4.79892 4.00961 0.0 
3.99987 3.98697 0.0 
4.50269 4.0478 0.0 
4.71561 4.03174 0.0 
4.72979 4.03468 0.0 
4.27355 4.08829 0.0 
4.25325 4.08014 0.0 
4.72403 4.05279 0.0 
4.88078 3.97191 0.0 
5.03807 3.9762 0.0 
4.28121 4.08321 0.0 
4.80544 4.01487 0.0 
4.68503 3.98643 0.0 
4.11894 4.04998 0.0 
4.98174 4.03773 0.0 
4.82836 3.96922 0.0 
4.84093 3.99389 0.0 
4.01925 4.05221 0.0 
4.70574 4.03452 0.0 
4.07882 3.92955 0.0 
4.701 4.03618 0.0 
4.7102 4.04502 0.0 
4.79203 4.01474 0.0 
4.707 3.99903 0.0 
4.00975 4.04675 0.0 
4.1843 4.06377 0.0 
4.89958 4.00996 0.0 
2.67239 0 0.0 
4.62051 4.04357 0.0 
5.1155 4.03675 0.0 
4.12358 3.96469 0.0 
5.65049 4.04711 0.0 
4.43463 4.07635 0.0 
4.56466 4.05754 0.0 
4.63946 4.07878 0.0 
4.40672 3.87914 0.0 
4.03695 4.06573 0.0 
4.59511 3.9627 0.0 
4.67861 4.05195 0.0 
3.95004 3.97529 0.0 
4.03056 4.00348 0.0 
4.46897 4.09961 0.0 
4.30905 3.98107 0.0 
14 0.962545 0.0 
4.47655 4.05736 0.0 
4.71932 4.0334 0.0 
4.76408 4.05747 0.0 
5.66621 4.47742 0.0 
4.39671 4.07053 0.0 
4.1753 4.06094 0.0 
4.81885 4.01423 0.0 
4.77865 3.99613 0.0 
4.41215 4.04996 0.0 
6.01426 4.26653 0.0 
5.58162 3.92034 0.0 
4.83296 4.05004 0.0 
4.83925 4.01739 0.0 
4.25851 3.97039 0.0 
5.70092 4.20859 0.0 
3.96103 3.91094 0.0 
4.83132 3.97938 0.0 
4.79903 4.00342 0.0 
8.75684 0.585272 0.0 
4.7671 4.0543 0.0 
4.02852 4.02064 0.0 
4.41555 4.06792 0.0 
4.61817 4.06739 0.0 
4.61596 4.06116 0.0 
4.98318 3.98361 0.0 
4.99347 4.02007 0.0 
4.52712 3.96526 0.0 
4.00749 3.97714 0.0 
4.06965 3.93358 0.0 
4.81435 4.00031 0.0 
4.78232 4.00837 0.0 
4.02104 4.04639 0.0 
4.72057 4.02586 0.0 
4.90159 4.01523 0.0 
3.93343 3.9974 0.0 
4.22962 4.10158 0.0 
4.68599 3.9914 0.0 
4.18755 4.10878 0.0 
4.01131 4.00198 0.0 
4.26136 4.08045 0.0 
4.68635 4.05503 0.0 
4.52209 3.85777 0.0 
4.78586 4.00166 0.0 
5.91074 4.72381 0.0 
4.77431 4.00744 0.0 
6.13574 5.10936 0.0 
3.99827 4.06974 0.0 
4.4372 4.07435 0.0 
4.10309 3.94911 0.0 
4.04002 3.97684 0.0 
4.17461 4.06205 0.0 
4.71169 4.03053 0.0 
[...]
<PointData>
  <DataArray type = "Float64" Name="Vitesse" NumberOfComponents="3" format="ascii">
1 0 0.0 
0.999777 0 0.0 
1.00028 0 0.0 
1 0 0.0 
-1.43132e-242 -3.87058e-244 0.0 
0.0131876 -0.00248245 0.0 
4.73798e-197 -1.88539e-197 0.0 
0.0976371 -0.00310085 0.0 
1.8726e-198 -3.65855e-199 0.0 
0.363137 -0.00830348 0.0 
0.0653174 0.00305024 0.0 
0.175851 0.00365717 0.0 
0.0809071 -0.00806497 0.0 
0.0451156 0.00183191 0.0 
0.0222334 0.00104893 0.0 
0.0391146 0.00274272 0.0 
0.235725 0.00735858 0.0 
0.132478 -0.0111935 0.0 
1.10544 -0.0478887 0.0 
0.0885818 -0.00757019 0.0 
1.83104e-208 -1.29911e-209 0.0 
-3.82076e-242 1.15472e-242 0.0 
0.126273 0.00323762 0.0 
0.574502 0.0427262 0.0 
1.00109 0 0.0 
1.14193 -0.0071748 0.0 
0.927554 0.295812 0.0 
0.71736 -0.0341837 0.0 
0.0505357 -0.00464149 0.0 
0.0752014 0.00249882 0.0 
0.202978 -0.0152982 0.0 
1.01966 0.00187253 0.0 
0.164682 -0.0398999 0.0 
0.077402 0.00293368 0.0 
0.0369392 -0.000118171 0.0 
0.758496 0.00415263 0.0 
1.31404e-201 3.18107e-202 0.0 
-1.11091e-139 -3.94517e-140 0.0 
0.0566722 0.00369322 0.0 
0.0493889 -0.00386192 0.0 
5.85288e-204 -1.14235e-204 0.0 
6.99778e-198 1.32667e-199 0.0 
3.6562e-05 -9.02471e-07 0.0 
0.147635 0.00304456 0.0 
-1.19167e-241 2.87192e-242 0.0 
0.121878 -0.0105011 0.0 
0.373577 -0.0512666 0.0 
0.212677 -0.00553779 0.0 
4.26692e-199 8.08964e-201 0.0 
0.0626151 -0.00409961 0.0 
0.0412845 0.00173054 0.0 
0.672482 0.101458 0.0 
0.0184852 0.00128585 0.0 
0.772096 -0.075321 0.0 
0.187613 0.0235653 0.0 
0.261653 0.0047337 0.0 
7.04772e-06 3.68297e-07 0.0 
1.14746e-199 -8.25383e-201 0.0 
0.255939 0.00366551 0.0 
0.968461 -0.336053 0.0 
2.56239e-198 -2.27343e-199 0.0 
-1.38778e-50 1.96091e-51 0.0 
0.724677 -0.0447634 0.0 
0.589511 0.314675 0.0 
0.654795 -0.0142141 0.0 
0.914731 0.295126 0.0 
1.01176e-194 2.4493e-195 0.0 
0.812928 -0.0545525 0.0 
-1.83262e-97 2.32971e-98 0.0 
0.0517071 0.00397366 0.0 
0.387954 -0.0197473 0.0 
0.00736099 -0.00103225 0.0 
0.819988 0.198079 0.0 
-7.29519e-100 3.46106e-101 0.0 
0.21953 0.00257957 0.0 
0.786634 0.196588 0.0 
0.913287 0.232833 0.0 
-5.84225e-243 1.64056e-244 0.0 
0.0525259 0.00127001 0.0 
0.149712 0.00345881 0.0 
1.12013 0.126743 0.0 
0.262409 -0.0462597 0.0 
0.0144962 -0.00227264 0.0 
0.103058 0.00491659 0.0 
0.110253 0.00522545 0.0 
0.0369179 0.00200391 0.0 
0.167872 -0.00705701 0.0 
-7.18975e-243 -3.71443e-244 0.0 
-1.54924e-242 3.49303e-244 0.0 
0.0369694 -0.00407739 0.0 
1.55265e-194 -1.05291e-194 0.0 
0.00010037 -1.43842e-05 0.0 
0.113823 0.058983 0.0 
-3.4684e-91 1.93833e-91 0.0 
-1.16437e-241 2.70038e-242 0.0 
0.198555 0.0249077 0.0 
0.366708 0.154115 0.0 
0.15216 0.00545226 0.0 
6.8846e-199 -7.21306e-200 0.0 
3.33625e-200 -5.65544e-201 0.0 
-1.70629e-49 3.36158e-50 0.0 
0.0508881 0.00299018 0.0 
-8.58804e-52 1.35603e-52 0.0 
0.397582 -0.00674492 0.0 
0.00686715 -0.00097856 0.0 
1.02678 0.0263347 0.0 
0.371587 0.00443397 0.0 
3.18395e-201 -5.101e-202 0.0 
0.0175711 -0.00299759 0.0 
0.00179317 2.17959e-05 0.0 
-3.71329e-244 1.27442e-245 0.0 
0.658562 0.151827 0.0 
-1.27543e-242 -6.8345e-244 0.0 
0.553293 0.132028 0.0 
-3.12397e-242 -1.72439e-243 0.0 
0.10936 0.00198444 0.0 
0.121152 -0.0316521 0.0 
1.03973 -0.0747931 0.0 
0.711072 0.0985957 0.0 
-3.53656e-243 -6.65635e-245 0.0 
1.11623 -0.0140888 0.0 
1.09644 0.057976 0.0 
0.0557605 0.0017683 0.0 
-7.18463e-243 -1.35273e-244 0.0 
5.31155e-05 -7.70162e-07 0.0 
0.0756951 -0.00658928 0.0 
0.399833 -0.00547115 0.0 
-2.6471e-242 3.7841e-243 0.0 
0.132205 -0.0084348 0.0 
0.163777 0.00522957 0.0 
-1.49258e-242 1.17544e-243 0.0 
0.136964 0.00911447 0.0 
1.04632 -0.189776 0.0 
0.828382 -0.0297191 0.0 
0.0986701 0.00463585 0.0 
0.140877 -0.0309107 0.0 
0.000781416 2.79165e-05 0.0 
0.103856 -0.0143511 0.0 
2.92414e-200 9.42091e-202 0.0 
0.25407 0.00603287 0.0 
0.318659 -0.0113509 0.0 
-3.93711e-242 3.5591e-243 0.0 
5.56467e-05 -8.56193e-06 0.0 
0.252329 0.00731121 0.0 
0.0897591 0.00264254 0.0 
5.57453e-06 2.91311e-07 0.0 
-3.47867e-243 3.39688e-245 0.0 
0.0517369 -0.00484244 0.0 
0.640376 0.0928963 0.0 
-3.45097e-242 3.11963e-243 0.0 
0.167427 0.00110425 0.0 
1.697e-198 -8.8699e-200 0.0 
8.97737e-199 -6.22422e-200 0.0 
0.552335 -0.0140013 0.0 
0.132404 0.00683972 0.0 
0.136725 0.00347718 0.0 
0.833959 0.219994 0.0 
0.141612 0.0217667 0.0 
0.599904 0.0786365 0.0 
0.134327 0.00504621 0.0 
0.014432 -0.000713102 0.0 
0.00844554 0.00113997 0.0 
0.215134 -0.0410547 0.0 
-6.01531e-55 -1.3931e-56 0.0 
0.393687 -0.0231222 0.0 
0.0434632 -0.00784043 0.0 
0.0600196 -0.0120327 0.0 
1.63912e-196 -7.00395e-197 0.0 
1.13691e-200 -4.11139e-202 0.0 
0.307221 0.000831761 0.0 
0.92657 -0.0143979 0.0 
0.977147 0.0338292 0.0 
0.969519 0.0378814 0.0 
0.484114 -0.0102926 0.0 
0.0320658 -0.00146367 0.0 
0.685667 0.0852247 0.0 
9.34948e-201 8.03426e-202 0.0 
0.684177 0.109678 0.0 
0.28494 -0.0115132 0.0 
0.0615992 -0.00812071 0.0 
0.261965 -0.00957443 0.0 
1.06459 -0.0947686 0.0 
1.08794 -0.116756 0.0 
0.0517832 0.0024046 0.0 
0.0234135 0.000455594 0.0 
0.0746756 -0.0147766 0.0 
0.0539497 0.0163274 0.0 
1.00269 -0.0919313 0.0 
0.164752 0.00752115 0.0 
0.15341 -0.0331035 0.0 
0.152733 0.00622278 0.0 
0.938091 -0.132765 0.0 
0.0242849 -0.00240395 0.0 
0.0123961 -0.00233688 0.0 
0.16746 0.0175024 0.0 
0.0870307 -0.0125177 0.0 
0.103349 -0.0145989 0.0 
0.0295821 -0.00669216 0.0 
0.545877 -0.0344636 0.0 
0.944198 0.0887537 0.0 
0.112327 -0.030441 0.0 
1.15569 0.0486422 0.0 
1.03247 -0.130815 0.0 
0.200781 7.24742e-05 0.0 
1.90423e-198 -6.88624e-200 0.0 
0.967404 -0.268033 0.0 
0.0683032 0.00287125 0.0 
1.1312 0.0774426 0.0 
0.222011 0.025696 0.0 
1.00638 0 0.0 
0.00398777 0.000336745 0.0 
6.86447e-194 4.27036e-195 0.0 
0.000610933 1.74958e-06 0.0 
0.209687 -0.00648403 0.0 
9.83558e-199 -2.28902e-199 0.0 
0.151476 -0.024767 0.0 
0.0265985 0.000556641 0.0 
0.0905044 -0.00418069 0.0 
0.160223 0.00841238 0.0 
-6.34104e-243 -1.3566e-244 0.0 
2.0346e-05 -3.84543e-07 0.0 
0.0476939 -0.00748777 0.0 
1.08027 -0.0268639 0.0 
0.0536942 0.00125869 0.0 
-1.22195e-245 1.3203e-246 0.0 
0.222741 0.0069633 0.0 
0.0266605 -0.0019442 0.0 
0.146486 -0.0338516 0.0 
-6.95108e-52 -1.92618e-53 0.0 
4.64076e-194 -1.60942e-195 0.0 
3.50589e-193 -7.06021e-195 0.0 
0.625287 0.0548014 0.0 
0.0785762 -0.0123509 0.0 
0.119719 -0.0333216 0.0 
0.690253 0.0522484 0.0 
0.0736059 -0.0116853 0.0 
0.174369 0.00932404 0.0 
-4.76704e-242 5.16135e-243 0.0 
0.245693 -0.0516844 0.0 
-5.17641e-53 -2.78789e-54 0.0 
0.618318 -0.0499929 0.0 
0.149274 -0.0207104 0.0 
0.167141 -0.00321988 0.0 
0.12884 -0.0223889 0.0 
0.0545026 -0.0071204 0.0 
0.102802 -0.0226227 0.0 
0.502555 0.0316582 0.0 
0.0938183 0.018871 0.0 
-2.16559e-242 5.61046e-244 0.0 
0.267055 -0.0521888 0.0 
-2.10485e-146 4.87516e-147 0.0 
0.636769 -0.029843 0.0 
0.160457 0.00348525 0.0 
2.45116e-198 6.83842e-200 0.0 
0.0603169 0.00378163 0.0 
0.201511 0.067278 0.0 
2.37529e-201 5.27555e-203 0.0 
0.929116 0.137484 0.0 
0.209069 0.000293101 0.0 
0.0173047 0.00151428 0.0 
0.191782 -0.0426498 0.0 
0.299583 0.0870379 0.0 
0.122089 -0.0290035 0.0 
-2.83738e-92 1.43035e-92 0.0 
0.183887 -0.0300718 0.0 
0.000346801 -2.00009e-05 0.0 
0.318814 0.0142586 0.0 
-1.66521e-141 -2.58079e-142 0.0 
0.137981 0.00521951 0.0 
0.125317 -0.0270448 0.0 
0.0305114 -0.00524394 0.0 
0.0476235 0.00247282 0.0 
0.200726 0.0050148 0.0 
1.16584 -0.0682946 0.0 
0.0665168 -0.00999994 0.0 
4.48151e-196 -6.16931e-198 0.0 
0.148715 0.00679499 0.0 
0.0684999 0.00808349 0.0 
0.0438746 0.000264753 0.0 
0.47048 -0.0648128 0.0 
0.112316 -0.0125992 0.0 
0.0484687 0.00232767 0.0 
0.146476 0.0191715 0.0 
0.0204549 0.00206982 0.0 
-3.18218e-100 6.18769e-101 0.0 
0.0733513 -0.0120725 0.0 
0.140784 0.0102813 0.0 
0.121319 0.00595928 0.0 
0.0610723 -0.0102513 0.0 
0.045726 -0.00680722 0.0 
0.196031 -0.0317978 0.0 
0.0896953 -0.0137488 0.0 
0.197838 -0.0210356 0.0 
0.113622 -0.0224593 0.0 
0.141936 -0.00177535 0.0 
0.223225 -0.0342848 0.0 
0.160132 -0.0158496 0.0 
0.715931 -0.0799933 0.0 
0.351238 -0.00450424 0.0 
0.133173 -0.0183968 0.0 
1.13344 -0.0766564 0.0 
0.0887843 0.00405311 0.0 
0.115162 -0.00101996 0.0 
-3.53729e-242 3.56455e-243 0.0 
0.0859865 -0.0125812 0.0 
1.03107 -0.231001 0.0 
0.136405 0.00889299 0.0 
0.124768 -0.0112412 0.0 
0.23799 -0.00976337 0.0 
4.79591e-198 -6.61878e-200 0.0 
0.0545568 0.00197765 0.0 
0.604194 0.0765849 0.0 
-1.14368e-241 2.87152e-242 0.0 
-1.58936e-243 -6.86478e-245 0.0 
0.301218 -0.186972 0.0 
1.17434 -0.0297138 0.0 
0.013862 -0.000530591 0.0 
0.210181 0.00696138 0.0 
0.168995 0.0319196 0.0 
1.14681 0.105069 0.0 
1.04973 0.0957713 0.0 
5.9755e-194 -1.27423e-194 0.0 
0.220892 0.0114554 0.0 
0.0833597 0.00292671 0.0 
0.0995773 -0.0134778 0.0 
0.571631 0.239602 0.0 
0.00137719 9.54873e-06 0.0 
0.0841502 0.00323111 0.0 
0.233547 -0.0344828 0.0 
1.68001e-197 -3.97087e-198 0.0 
0.0705565 -0.00756522 0.0 
1.02067 -0.201092 0.0 
2.25069e-195 -8.89777e-196 0.0 
0.111192 -0.0148889 0.0 
0.0600779 0.0101293 0.0 
0.0517061 -0.0108512 0.0 
0.00566953 0.000455409 0.0 
0.246681 -0.024236 0.0 
0.0114277 0.000389095 0.0 
0.010387 -0.00495103 0.0 
1.08141 -0.0844315 0.0 
0.0273458 0.00226292 0.0 
0.128752 -0.0259394 0.0 
7.37968e-06 -7.05334e-07 0.0 
0.979662 0.0302364 0.0 
1.08341 0.0583948 0.0 
0.13029 -0.015142 0.0 
2.74546e-203 3.82047e-205 0.0 
0.164043 0.0234899 0.0 
0.0968402 -0.00194434 0.0 
0.0172389 -8.95923e-06 0.0 
-1.36884e-53 4.14056e-55 0.0 
-3.47094e-146 4.61145e-148 0.0 
0.100551 -0.0284553 0.0 
0.108332 -0.00285768 0.0 
4.07062e-202 -8.17077e-204 0.0 
1.08191e-201 2.52015e-203 0.0 
2.47037e-06 8.38344e-08 0.0 
-4.23301e-146 -3.68017e-147 0.0 
2.82148e-195 -1.01219e-196 0.0 
2.27991e-194 -6.89302e-195 0.0 
0.073114 0.00270274 0.0 
-5.41273e-242 6.68194e-243 0.0 
0.14573 -0.0203902 0.0 
0.0100791 0.000851851 0.0 
0.0769626 -0.0106331 0.0 
0.156925 0.00591506 0.0 
0.1824 0.0207389 0.0 
0.124248 0.010829 0.0 
0.220962 -0.0150795 0.0 
0.0757977 0.0037797 0.0 
5.79276e-199 -1.23011e-199 0.0 
-7.30813e-93 -2.35554e-93 0.0 
0.298454 0.0278196 0.0 
0.0452629 -0.00402881 0.0 
0.607231 -0.267806 0.0 
-3.07942e-242 2.92989e-243 0.0 
0.546878 -0.492522 0.0 
1.86606e-203 -1.32395e-204 0.0 
-5.50487e-149 3.56262e-150 0.0 
-4.30839e-144 9.57088e-145 0.0 
0.55405 0.0399567 0.0 
0.39888 0.0295549 0.0 
0.0705415 -0.0068103 0.0 
0.157826 0.00728813 0.0 
0.189893 0.0221916 0.0 
0.411815 0.025864 0.0 
-4.22879e-242 4.73801e-243 0.0 
6.68508e-06 8.25793e-07 0.0 
4.1032e-05 9.78652e-06 0.0 
0.168441 -0.0315117 0.0 
0.160474 0.00712566 0.0 
-3.03659e-51 -1.69651e-52 0.0 
0.799802 0.316617 0.0 
4.62803e-195 -4.65977e-196 0.0 
1.0929 -0.209997 0.0 
1.10674e-195 -1.49675e-196 0.0 
0.00809746 -0.00121511 0.0 
3.26508e-204 -2.00582e-205 0.0 
2.69006e-197 5.06247e-199 0.0 
0.746128 0.3051 0.0 
0.115309 0.0156743 0.0 
1.96425e-194 -7.77014e-195 0.0 
1.00461 0 0.0 
1.18634e-195 -3.2e-196 0.0 
0.263409 -0.049811 0.0 
0.157292 -0.00947776 0.0 
0.428571 0.00395145 0.0 
0.160376 -0.00669539 0.0 
0.000294076 -6.3704e-06 0.0 
0.262539 -0.0163464 0.0 
1.06855 -0.0379272 0.0 
0.88524 0.301939 0.0 
0.161164 0.00600892 0.0 
0.0346785 -0.00220198 0.0 
0.77021 -0.150588 0.0 
-2.71426e-242 5.08383e-243 0.0 
0.546502 -0.00314139 0.0 
9.56577e-195 -1.6138e-195 0.0 
0.999787 -1.36816e-05 0.0 
-5.91885e-147 8.67013e-149 0.0 
-1.41659e-147 9.16785e-149 0.0 
0.129831 -0.0130162 0.0 
1.0984 0.0150687 0.0 
0.0484414 0.00178658 0.0 
0.0445817 0.0033257 0.0 
-4.87306e-242 6.50505e-243 0.0 
4.54107e-198 -7.37111e-199 0.0 
4.5145e-198 -3.81351e-199 0.0 
0.742036 -0.0615953 0.0 
0.635538 0.026882 0.0 
0.123284 -0.015652 0.0 
-6.77682e-242 8.93796e-243 0.0 
-1.00559e-93 -4.90913e-95 0.0 
0.560121 -0.0180973 0.0 
0.91513 -0.180383 0.0 
0.0845095 0.00334105 0.0 
3.36045e-196 -2.0644e-197 0.0 
1.00049 0.000573605 0.0 
0.108509 -0.0112191 0.0 
6.66558e-193 2.37231e-193 0.0 
0.0168323 0.000312223 0.0 
0.13012 -0.00886023 0.0 
0.0670234 -0.00502672 0.0 
0.113294 0.00853572 0.0 
0.0868961 -0.0212314 0.0 
0.118995 0.00504248 0.0 
0.783123 -0.463745 0.0 
1.08775 -0.227168 0.0 
4.80509e-201 4.03466e-202 0.0 
6.36885e-203 -3.91253e-204 0.0 
0.778449 0.336146 0.0 
4.79962e-200 -4.83254e-201 0.0 
5.78923e-09 -5.88042e-10 0.0 
0.768486 -0.070856 0.0 
0.924524 0.108972 0.0 
-5.39982e-144 7.17414e-146 0.0 
1.04926 0.160471 0.0 
3.10988e-193 -2.17805e-193 0.0 
0.385163 0.0247032 0.0 
0.0627527 -0.00636694 0.0 
1.08213 -0.0293047 0.0 
4.4988e-202 -2.92385e-203 0.0 
1.14916 -0.0664872 0.0 
1.05119e-201 -6.83698e-203 0.0 
0.971638 -0.050111 0.0 
0.803635 0.213792 0.0 
0.127843 -0.00594099 0.0 
0.773793 -0.102128 0.0 
0.095348 -0.00991118 0.0 
0.0946573 0.0102341 0.0 
6.88143e-197 -6.92863e-198 0.0 
-5.51112e-242 7.88188e-243 0.0 
0.712427 0.317904 0.0 
0.0884188 -0.00943967 0.0 
1.00363 0.0407263 0.0 
0.84413 0.139444 0.0 
1.54717e-194 -1.17175e-195 0.0 
-5.61597e-141 -1.07487e-142 0.0 
0.192389 0.00635543 0.0 
0.0370203 -0.000894461 0.0 
0.14983 0.0195941 0.0 
2.31437e-196 -2.04595e-197 0.0 
-4.56023e-242 8.69062e-243 0.0 
-2.76604e-242 3.82853e-244 0.0 
0.0336433 -0.00414673 0.0 
0.000536857 2.1852e-05 0.0 
0.113365 0.00446568 0.0 
0.994981 -0.268613 0.0 
0.863747 -0.385671 0.0 
0.0446314 -0.0051427 0.0 
0.251281 0.00642815 0.0 
0.182192 -0.0119342 0.0 
1.06281 -0.182486 0.0 
4.49203e-195 2.52937e-196 0.0 
1.00895 0.000758523 0.0 
3.23441e-197 1.99335e-198 0.0 
0.116777 -0.0101454 0.0 
0.365243 0.0490348 0.0 
1.07436 -0.0733858 0.0 
0.0658567 0.000570372 0.0 
6.51708e-202 -5.17539e-203 0.0 
1.02796e-202 -1.01436e-203 0.0 
1.32287e-196 2.73417e-198 0.0 
0.580721 0.278514 0.0 
2.8214e-195 8.68552e-196 0.0 
1 -0.000365013 0.0 
-2.61576e-51 4.21829e-52 0.0 
0.139099 0.00461877 0.0 
0.182469 -0.0158832 0.0 
0.138736 -0.00436924 0.0 
0.0336619 -0.00326768 0.0 
0.999756 -0.000416158 0.0 
0.504377 0.0219191 0.0 
0.127393 -0.0109872 0.0 
-3.09152e-94 4.90128e-95 0.0 
-1.26519e-50 -3.82716e-51 0.0 
-2.86095e-99 1.35732e-100 0.0 
0.64518 0.252787 0.0 
-3.89541e-149 -3.16103e-150 0.0 
-2.8239e-242 1.79193e-243 0.0 
0.114996 -0.0102264 0.0 
9.63965e-197 2.89891e-197 0.0 
0.0897462 -0.00364082 0.0 
0.0851242 -0.00653009 0.0 
0.748847 -0.112156 0.0 
0.17159 0.00776612 0.0 
0.652721 -0.0407804 0.0 
0.0185643 0.00644359 0.0 
0.261691 -0.0173698 0.0 
0.0582334 0.00228884 0.0 
0.552478 -0.0254519 0.0 
0.0892186 -0.00936767 0.0 
0.0932954 -0.0218039 0.0 
0.138952 -0.0116008 0.0 
0.0479604 0.00252628 0.0 
1.56404e-197 -3.34759e-198 0.0 
2.04555e-205 -1.72793e-206 0.0 
0.629557 0.332723 0.0 
-6.47669e-52 5.2765e-54 0.0 
0.0994533 -0.00932677 0.0 
0.0321084 -0.0038763 0.0 
2.01059e-202 -4.26959e-203 0.0 
0.931393 0.0751403 0.0 
0.708447 0.291671 0.0 
0.0454258 -0.00287769 0.0 
0.241738 -0.0164845 0.0 
1.02795 0.0425692 0.0 
0.00916091 -0.00020964 0.0 
0.0975471 0.013164 0.0 
0.748892 0.0608795 0.0 
0.998621 0.0381146 0.0 
0.496522 0.123528 0.0 
0.0835184 -0.009419 0.0 
-5.14446e-242 8.0654e-243 0.0 
-3.96222e-144 -3.47882e-146 0.0 
0.771565 0.248629 0.0 
0.47937 -0.0283305 0.0 
0.839952 0.00832134 0.0 
-4.44706e-242 1.35161e-242 0.0 
0.153502 0.0139019 0.0 
0.127882 -0.00893139 0.0 
-4.49774e-49 9.53624e-50 0.0 
1.14123e-05 8.83711e-07 0.0 
0.0541148 -0.00617444 0.0 
0.106699 -0.00944313 0.0 
0.0419104 0.00201486 0.0 
-4.81707e-242 1.22651e-242 0.0 
0.864272 0.31239 0.0 
-1.98092e-145 2.02729e-146 0.0 
0.133643 -0.0110377 0.0 
1.12616 0.0852009 0.0 
1.49851e-196 6.95365e-198 0.0 
0.00356234 0.000115526 0.0 
0.061931 -0.0067928 0.0 
0.0943485 -0.00889544 0.0 
0.0347646 0.00123054 0.0 
0.0911393 0.00383105 0.0 
3.11999e-197 -6.73784e-198 0.0 
0.134474 -0.0112783 0.0 
-5.85885e-242 1.68797e-242 0.0 
0.0559042 0.00179901 0.0 
0.168886 -0.0130712 0.0 
0.0735691 -0.0132842 0.0 
1.13765e-195 -2.54398e-196 0.0 
0.935078 0.133387 0.0 
0.999856 0.000415573 0.0 
0.82345 0.148035 0.0 
0.774067 0.106077 0.0 
-3.40312e-242 5.31119e-243 0.0 
0.50248 -0.0976369 0.0 
0.00802807 -0.000893717 0.0 
0.116987 0.0118608 0.0 
0.700392 0.254019 0.0 
0.605102 -0.338678 0.0 
-2.02915e-52 9.22973e-54 0.0 
0.04141 -0.0031639 0.0 
1.01362 -0.0232456 0.0 
-6.2032e-96 5.73551e-97 0.0 
1.00248 -0.00065353 0.0 
0.754031 0.0667398 0.0 
0.165907 -0.0130816 0.0 
1.53943e-194 5.47895e-195 0.0 
-8.15434e-51 2.75843e-53 0.0 
0.342889 -0.0157784 0.0 
0.859781 -0.0817036 0.0 
0.999821 -0.000432204 0.0 
0.813121 0.327147 0.0 
0.847952 0.323691 0.0 
0.508136 -0.0175276 0.0 
0.417882 0.0469783 0.0 
7.96469e-193 -5.89052e-193 0.0 
0.108825 0.00473253 0.0 
-5.10749e-242 1.60711e-242 0.0 
1.76157e-200 -1.73826e-201 0.0 
0.00188338 -0.000223184 0.0 
1.00027 -3.41079e-05 0.0 
0.0567627 -0.0063589 0.0 
-2.09415e-95 -5.39567e-98 0.0 
0.100493 0.0117875 0.0 
0.101859 0.00450285 0.0 
6.05381e-197 -2.81585e-197 0.0 
0.292804 -0.00858195 0.0 
-1.59354e-50 -2.23264e-51 0.0 
9.56148e-196 -8.07681e-197 0.0 
1.85096e-200 -2.61566e-201 0.0 
0.127146 0.00346502 0.0 
-3.36361e-242 3.04066e-243 0.0 
0.702513 0.236364 0.0 
0.117677 0.00532317 0.0 
0.0755111 -0.00632876 0.0 
-2.18368e-145 -1.61645e-146 0.0 
0.112371 0.00390186 0.0 
0.0376988 0.0035145 0.0 
5.48776e-195 2.80928e-196 0.0 
1.05206 -0.0296269 0.0 
0.618249 -0.198735 0.0 
0.990008 -0.0529199 0.0 
6.09442e-203 3.1271e-204 0.0 
9.77083e-199 -2.65796e-199 0.0 
0.0935968 -0.00779926 0.0 
0.0292541 -0.00127564 0.0 
0.114238 0.00509466 0.0 
-1.92199e-242 3.03096e-244 0.0 
0.652498 0.182784 0.0 
0.0991139 0.00782117 0.0 
-1.56081e-146 9.23266e-148 0.0 
-8.83226e-146 -3.75925e-147 0.0 
0.139864 -0.0111928 0.0 
0.043026 0.00282706 0.0 
-7.22454e-141 -5.36757e-141 0.0 
2.10026e-194 9.41951e-196 0.0 
0.0999218 -0.00869473 0.0 
0.83856 -0.468182 0.0 
0.1657 -0.040172 0.0 
0.705167 0.167333 0.0 
0.992946 -0.34449 0.0 
0.126377 0.00845848 0.0 
0.066596 0.0034805 0.0 
0.687006 0.190548 0.0 
-2.44651e-51 2.85943e-52 0.0 
1.04551 -0.021587 0.0 
0.178922 0.00795637 0.0 
0.355524 -0.0592508 0.0 
0.796683 0.189703 0.0 
3.24619e-194 -4.65511e-195 0.0 
0.770195 -0.396459 0.0 
0.187372 0.0157634 0.0 
0.0109781 0.000904952 0.0 
0.130112 0.00582406 0.0 
0.0632614 0.00696208 0.0 
0.0316047 0.00298786 0.0 
0.0244312 -5.05503e-05 0.0 
0.463842 -0.0369444 0.0 
3.08159e-196 1.30786e-197 0.0 
0.0146561 -0.000339358 0.0 
0.11447 -0.00138534 0.0 
0.0649253 0.010792 0.0 
-8.75432e-242 2.41961e-242 0.0 
0.668802 0.230477 0.0 
0.48029 -0.0782562 0.0 
0.735875 0.245795 0.0 
0.262146 -0.0069819 0.0 
4.10179e-200 1.06044e-201 0.0 
0.812197 -0.154669 0.0 
0.683128 0.216009 0.0 
0.0405979 0.00103156 0.0 
4.48461e-197 -2.91462e-198 0.0 
0.218757 -0.0155288 0.0 
-7.11748e-242 1.85166e-242 0.0 
1.00478 0.108732 0.0 
1.07992 -0.0239879 0.0 
1.78112e-195 -1.02363e-195 0.0 
0.0965344 -0.00747583 0.0 
0.307377 0.0731372 0.0 
1.00786 0.00182941 0.0 
0.722587 0.190014 0.0 
1.01398 -0.0563985 0.0 
0.0602305 0.00637721 0.0 
-9.41562e-242 2.76007e-242 0.0 
0.660408 0.108904 0.0 
0.12007 0.0055001 0.0 
0.0251568 0.00139206 0.0 
3.31283e-198 1.92701e-199 0.0 
0.922157 0.0484428 0.0 
0.198782 -0.0146643 0.0 
0.733775 0.145644 0.0 
0.686732 0.139314 0.0 
-1.12963e-141 3.55743e-141 0.0 
1.08652 -0.0231535 0.0 
1.01484 -0.0929165 0.0 
-2.21656e-142 -1.28959e-142 0.0 
-3.77513e-144 1.67235e-145 0.0 
1.54138e-196 -2.60659e-197 0.0 
1.0324 -0.0439823 0.0 
0.889999 -0.00691706 0.0 
-2.56892e-144 -8.06211e-146 0.0 
0.365404 -0.0596058 0.0 
-3.7097e-100 3.66245e-101 0.0 
1 0 0.0 
0.0427066 0.00206916 0.0 
0.127864 0.000689708 0.0 
0.294773 0.00490789 0.0 
0.841106 0.272748 0.0 
0.0488628 0.00142173 0.0 
0.187307 -0.0215493 0.0 
0.972233 -0.179923 0.0 
-1.8721e-142 2.55763e-143 0.0 
0.977569 -0.0530439 0.0 
-4.11419e-93 -1.31482e-94 0.0 
0.0174154 -0.00102327 0.0 
1.05414e-194 -2.66335e-195 0.0 
0.778948 -0.365353 0.0 
0.470069 -0.0451593 0.0 
0.824476 -0.355129 0.0 
0.563431 0.0497678 0.0 
0.852501 -0.397747 0.0 
1.06415 0.0756494 0.0 
0.107661 0.00564049 0.0 
-2.38995e-145 -4.03186e-147 0.0 
-1.91645e-242 -5.6262e-244 0.0 
0.0555346 -0.00793327 0.0 
-1.39173e-51 -1.84602e-52 0.0 
-3.2892e-48 -9.94968e-49 0.0 
1.01054 -0.0322508 0.0 
0.902862 -0.41156 0.0 
1.01806 -0.0208346 0.0 
3.42979e-201 -3.40352e-202 0.0 
0.786283 0.166909 0.0 