<VTKFile type="UnstructuredGrid" version="0.1" byte_order="LittleEndian">
  <UnstructuredGrid>
    <Piece NumberOfPoints="13700" NumberOfCells="27248">
      <Points>
        <DataArray type = "Float64" NumberOfComponents="3" format="ascii">
0 0 0.0 
14 0 0.0 
14 8 0.0 
0 8 0.0 
4.01925 4.05221 0.0 
3.98227 4.04617 0.0 
5.15553 4.02606 0.0 
4.03646 3.96999 0.0 
4.01347 3.94819 0.0 
4.76706 3.98527 0.0 
4.11193 3.9679 0.0 
5.03628 3.9624 0.0 
4.19907 4.06579 0.0 
4.06818 4.05086 0.0 
4.00273 4.05728 0.0 
3.99439 4.02858 0.0 
4.97651 4.00575 0.0 
4.44478 4.07996 0.0 
4.11623 4.05482 0.0 
8.40909 0 0.0 
4.79858 4.05061 0.0 
4.5104 4.08178 0.0 
4.02759 4.00199 0.0 
4.45691 4.07926 0.0 
0 2.35318 0.0 
4.2931 4.05431 0.0 
4.06288 4.03688 0.0 
4.51614 4.06463 0.0 
5.91965 3.97933 0.0 
6.55911 4.67752 0.0 
4.24128 4.05312 0.0 
10.5567 3.36482 0.0 
4.69393 3.97057 0.0 
4.70904 3.98372 0.0 
4.64344 3.95359 0.0 
4.09422 4.06655 0.0 
3.8957 4.03142 0.0 
4.40845 4.077 0.0 
5.03122 4.01313 0.0 
4.18875 3.93918 0.0 
4.51194 4.04817 0.0 
4.17471 4.08708 0.0 
4.12455 4.0547 0.0 
4.05789 4.06544 0.0 
4.10075 4.03591 0.0 
4.81354 3.97664 0.0 
9.23395 3.89076 0.0 
4.14394 3.94805 0.0 
4.09973 4.06883 0.0 
4.98031 4.02036 0.0 
4.0631 3.94627 0.0 
4.09324 4.07263 0.0 
4.48463 4.0392 0.0 
5.01594 3.97412 0.0 
4.22735 3.91196 0.0 
4.20027 3.96328 0.0 
6.04776 4.01915 0.0 
4.06915 4.04534 0.0 
4.91286 4.00555 0.0 
4.08538 4.02507 0.0 
4.20438 4.04613 0.0 
4.53021 3.97522 0.0 
4.96872 4.01663 0.0 
3.99368 4.01426 0.0 
3.89305 4.01486 0.0 
5.09733 4.01618 0.0 
4.94587 4.02527 0.0 
4.98228 4.02308 0.0 
4.70666 4.03293 0.0 
4.13251 4.05883 0.0 
4.31812 4.07534 0.0 
4.13827 4.08787 0.0 
4.4004 4.127 0.0 
5.00489 4.02516 0.0 
5.91226 4.25153 0.0 
4.48341 4.0268 0.0 
4.09424 4.05815 0.0 
3.99988 3.98708 0.0 
4.27014 4.0488 0.0 
4.83993 4.03718 0.0 
6.11225 3.8733 0.0 
4.10704 4.04463 0.0 
4.23959 4.1146 0.0 
5.41155 3.85481 0.0 
4.19159 3.93008 0.0 
4.58605 3.97769 0.0 
4.2529 4.087 0.0 
4.35678 4.07015 0.0 
5.16938 4.00112 0.0 
7.59514 2.94404 0.0 
4.76768 3.98041 0.0 
5.05182 3.97633 0.0 
4.22837 4.06693 0.0 
4.13347 3.96922 0.0 
4.43287 4.08724 0.0 
4.29004 4.08477 0.0 
4.17786 4.07881 0.0 
4.17478 4.06935 0.0 
5.04607 4.02448 0.0 
4.1628 3.94775 0.0 
4.63833 3.96699 0.0 
5.09798 4.0273 0.0 
4.30706 4.08026 0.0 
4.08831 4.06631 0.0 
4.31999 3.95194 0.0 
4.40427 4.00538 0.0 
4.4175 4.12976 0.0 
4.12905 3.94147 0.0 
4.85976 4.02527 0.0 
4.23972 4.07157 0.0 
4.56844 4.06884 0.0 
5.01116 4.01057 0.0 
4.95711 3.98506 0.0 
3.93483 4.02645 0.0 
4.52576 4.0968 0.0 
5.0786 4.01053 0.0 
3.9788 4.01158 0.0 
3.97234 4.03785 0.0 
4.17204 3.92436 0.0 
4.06175 4.03806 0.0 
5.00576 3.98835 0.0 
5.29301 4.04731 0.0 
3.9831 3.93993 0.0 
4.145 4.08513 0.0 
4.08147 3.99499 0.0 
4.98947 4.00894 0.0 
5.32292 4.17019 0.0 
4.86843 4.19513 0.0 
4.99603 3.97729 0.0 
5.10915 4.01656 0.0 
4.30113 4.04814 0.0 
4.63705 4.04055 0.0 
4.4755 4.0741 0.0 
4.05664 3.81012 0.0 
4.95286 4.03879 0.0 
4.08235 4.05331 0.0 
4.0089 3.92893 0.0 
4.03283 4.06047 0.0 
5.03246 3.98293 0.0 
4.24915 4.05618 0.0 
4.686 4.0477 0.0 
8.06243 2.47467 0.0 
5.00003 4.13175 0.0 
3.98712 4.04304 0.0 
4.04085 3.91511 0.0 
4.9912 4.02804 0.0 
4.68939 4.04801 0.0 
4.66746 4.07172 0.0 
5.07235 3.99531 0.0 
6.32634 3.79608 0.0 
5.8622 0.652372 0.0 
4.98997 4.02393 0.0 
4.27133 3.93978 0.0 
7.24995 3.94222 0.0 
5.01943 4.02273 0.0 
3.96199 4.03038 0.0 
5.04864 4.04382 0.0 
4.1584 4.03851 0.0 
4.07198 4.07393 0.0 
4.76156 4.05785 0.0 
4.18813 4.09432 0.0 
4.88438 4.03747 0.0 
4.78951 4.0354 0.0 
5.03899 4.01992 0.0 
4.57771 3.97793 0.0 
4.65587 4.05104 0.0 
4.77424 4.02394 0.0 
8.71823 4.14055 0.0 
4.65737 4.07495 0.0 
4.4027 4.06153 0.0 
4.16734 4.05926 0.0 
5.05402 4.03163 0.0 
5.60873 4.01519 0.0 
4.00489 3.99798 0.0 
4.16902 3.98151 0.0 
4.21209 4.09607 0.0 
4.11763 4.04808 0.0 
4.25158 3.98522 0.0 
4.37693 3.97036 0.0 
4.41472 4.04958 0.0 
4.14624 4.05662 0.0 
4.36646 4.07566 0.0 
4.213 4.06906 0.0 
10.9691 4.12032 0.0 
5.0636 3.98872 0.0 
4.80518 4.00503 0.0 
4.35944 3.97153 0.0 
3.98273 4.00621 0.0 
4.681 3.9833 0.0 
4.77028 3.98576 0.0 
4.98107 3.97981 0.0 
4.63451 4.0786 0.0 
5.03571 4.00684 0.0 
4.06247 4.08303 0.0 
4.98218 4.02738 0.0 
10.5668 4.09123 0.0 
3.95112 3.95632 0.0 
4.27406 4.08825 0.0 
3.95046 4.00001 0.0 
4.70037 4.04724 0.0 
4.22383 4.06305 0.0 
4.9465 4.01296 0.0 
4.81994 4.03202 0.0 
5.15771 3.9871 0.0 
4.305 4.07259 0.0 
4.02105 4.04639 0.0 
7.10688 3.81214 0.0 
4.43186 3.97279 0.0 
4.08942 4.04806 0.0 
4.49297 4.15887 0.0 
4.96587 3.99141 0.0 
4.49325 4.05582 0.0 
4.50257 4.09981 0.0 
8.92785 4.03144 0.0 
4.04144 3.97557 0.0 
4.12639 4.05926 0.0 
4.98463 4.01475 0.0 
4.88474 4.04745 0.0 
4.45097 3.9963 0.0 
5.00134 4.00081 0.0 
4.69061 4.06058 0.0 
4.36279 3.95194 0.0 
4.2725 3.94428 0.0 
5.01224 3.97834 0.0 
4.02873 4.02055 0.0 
4.29465 3.96708 0.0 
4.39036 3.97058 0.0 
11.7568 4.21072 0.0 
4.84541 4.04049 0.0 
4.81095 4.03231 0.0 
12.206 4.75645 0.0 
10.7354 3.59712 0.0 
4.53595 3.96939 0.0 
4.87681 3.99174 0.0 
4.71634 4.04556 0.0 
4.40159 3.88603 0.0 
3.99904 4.00172 0.0 
4.47641 3.99959 0.0 
4.61553 3.97963 0.0 
6.18245 4.21201 0.0 
4.19966 3.95761 0.0 
4.02949 3.97631 0.0 
5.42064 4.0275 0.0 
3.98742 4.01904 0.0 
4.28115 4.08293 0.0 
4.25325 4.08014 0.0 
3.99745 3.98903 0.0 
3.98558 4.06175 0.0 
4.98174 4.03773 0.0 
4.72692 4.04306 0.0 
4.35673 4.08048 0.0 
3.75473 4.26456 0.0 
4.3703 4.0918 0.0 
4.00671 4.06674 0.0 
4.25593 4.11374 0.0 
5.86141 3.89 0.0 
5.60955 4.11244 0.0 
4.00975 4.04675 0.0 
4.6702 4.07623 0.0 
2.67239 0 0.0 
4.25108 4.0707 0.0 
4.77109 3.98716 0.0 
4.03091 3.97176 0.0 
4.25 4.04556 0.0 
8.51284 1.84067 0.0 
4.01467 3.98227 0.0 
4.03695 4.06573 0.0 
3.99592 4.02432 0.0 
4.80857 4.04432 0.0 
4.41617 4.06777 0.0 
4.07895 4.07661 0.0 
4.23233 4.101 0.0 
4.26093 4.08097 0.0 
4.20051 4.07495 0.0 
4.92603 3.99445 0.0 
4.18755 4.11048 0.0 
4.80653 3.99 0.0 
4.3329 4.07119 0.0 
4.29625 3.95054 0.0 
4.71035 4.02722 0.0 
3.08171 2.09887 0.0 
4.66723 4.06525 0.0 
8.75684 0.585272 0.0 
4.10898 4.04008 0.0 
4.2609 4.10923 0.0 
5.04999 4.12927 0.0 
4.9817 4.00381 0.0 
4.99347 4.02007 0.0 
4.65382 3.98187 0.0 
4.00749 3.97714 0.0 
4.78195 3.98671 0.0 
4.6769 3.93564 0.0 
4.67335 4.04152 0.0 
4.27995 4.04964 0.0 
4.16055 3.98981 0.0 
4.0277 4.00858 0.0 
4.44438 4.05445 0.0 
4.70314 3.96658 0.0 
4.16616 4.06004 0.0 
4.00854 4.04134 0.0 
8.03046 5.83915 0.0 
4.43854 4.04123 0.0 
4.4269 3.99682 0.0 
4.27473 4.09602 0.0 
4.7162 3.98489 0.0 
5.00162 3.97999 0.0 
4.37694 4.12818 0.0 
4.08127 3.97246 0.0 
4.37829 4.10947 0.0 
4.3564 4.03784 0.0 
4.01229 4.05292 0.0 
8.74856 7.71704 0.0 
4.01731 3.97083 0.0 
4.24632 4.05089 0.0 
4.49035 3.96453 0.0 
4.09154 3.93527 0.0 
4.48822 4.12583 0.0 
4.6559 7.60199 0.0 
4.24196 3.98731 0.0 
4.10803 3.99306 0.0 
4.59648 4.05683 0.0 
4.80878 3.98909 0.0 
3.99835 4.02918 0.0 
4.02528 4.01889 0.0 
4.01224 4.01905 0.0 
4.10872 4.07473 0.0 
5.3262 4.0473 0.0 
5.05532 3.96524 0.0 
4.96311 4.0031 0.0 
4.01091 4.00056 0.0 
3.99623 4.03627 0.0 
4.03277 4.00935 0.0 
4.05133 4.02283 0.0 
7.7742 3.2457 0.0 
4.20306 3.95064 0.0 
4.14812 4.09263 0.0 
4.1755 3.94311 0.0 
4.25667 4.09902 0.0 
4.0781 3.98964 0.0 
4.22361 4.04691 0.0 
4.36478 4.08808 0.0 
4.4704 3.97113 0.0 
5.61751 3.88935 0.0 
4.21871 3.96494 0.0 
4.24692 3.97915 0.0 
4.00652 4.03234 0.0 
4.9443 4.01256 0.0 
4.50622 4.06327 0.0 
4.09316 3.96976 0.0 
4.6802 3.9819 0.0 
4.00427 4.04292 0.0 
4.48716 4.09718 0.0 
4.78865 4.0342 0.0 
3.98674 3.91813 0.0 
4.99643 3.98691 0.0 
3.99047 3.98781 0.0 
4.79919 4.04282 0.0 
4.04839 4.01492 0.0 
3.94967 4.05786 0.0 
4.69081 4.06706 0.0 
4.41525 3.96245 0.0 
4.5134 4.04093 0.0 
4.98996 3.97879 0.0 
4.14036 4.11338 0.0 
4.42042 4.08345 0.0 
4.02359 3.94782 0.0 
4.3994 3.99099 0.0 
5.29707 3.97278 0.0 
4.04456 4.02516 0.0 
4.22847 4.07708 0.0 
4.2242 4.06087 0.0 
3.91494 4.13773 0.0 
4.1401 3.98497 0.0 
4.10988 3.95698 0.0 
4.15962 4.04639 0.0 
4.30682 3.95396 0.0 
4.04131 3.99766 0.0 
4.48215 3.97417 0.0 
6.05992 3.94915 0.0 
5.03609 3.98885 0.0 
0.712024 5.21358 0.0 
3.9756 4.08504 0.0 
4.037 4.008 0.0 
4.06005 3.96532 0.0 
4.68846 3.8532 0.0 
4.04847 4.04817 0.0 
4.01118 3.98048 0.0 
4.35207 3.97066 0.0 
4.19216 3.95644 0.0 
4.17782 3.97888 0.0 
4.11241 4.05725 0.0 
3.9514 4.04615 0.0 
4.44061 4.06628 0.0 
4.03373 4.01881 0.0 
11.3017 0 0.0 
4.96312 4.01047 0.0 
4.03015 3.95696 0.0 
4.0241 4.0517 0.0 
4.03402 4.05512 0.0 
4.01068 3.99745 0.0 
4.02872 3.99494 0.0 
0.224418 7.35487 0.0 
4.40413 4.05425 0.0 
4.21428 4.08445 0.0 
11.4371 2.11828 0.0 
5.02756 3.99082 0.0 
4.49023 4.08399 0.0 
4.30936 3.96258 0.0 
4.21846 3.91954 0.0 
4.08166 4.0494 0.0 
3.98656 4.03721 0.0 
4.01683 4.05945 0.0 
4.07021 3.95517 0.0 
4.68003 4.05991 0.0 
11.1762 2.95922 0.0 
3.98298 4.00201 0.0 
4.36565 4.10014 0.0 
4.04721 3.95909 0.0 
4.83474 4.0406 0.0 
4.19546 3.97632 0.0 
4.88219 3.99089 0.0 
4.39635 3.90538 0.0 
4.00518 3.97325 0.0 
5.01982 4.03188 0.0 
4.34148 4.07064 0.0 
4.03934 4.02885 0.0 
4.06425 3.93419 0.0 
4.35429 4.08512 0.0 
4.47868 4.08142 0.0 
4.03655 4.0275 0.0 
4.02523 4.00272 0.0 
4.13 3.95601 0.0 
4.41252 3.94929 0.0 
5.11372 4.15245 0.0 
4.34966 4.05433 0.0 
4.1316 4.07308 0.0 
4.12603 3.95528 0.0 
4.05163 3.99747 0.0 
4.53092 4.04333 0.0 
4.2203 4.0648 0.0 
4.0538 3.95415 0.0 
4.24711 4.08558 0.0 
4.06987 3.96362 0.0 
3.99891 4.05059 0.0 
4.75698 3.97873 0.0 
3.99154 4.0424 0.0 
4.43024 3.96009 0.0 
4.01671 4.01538 0.0 
4.99569 4.00292 0.0 
4.05033 4.00375 0.0 
4.4823 4.10458 0.0 
3.95745 3.9636 0.0 
4.03734 3.98999 0.0 
4.20672 4.05011 0.0 
3.98689 4.0502 0.0 
4.36003 3.94411 0.0 
4.19328 3.96555 0.0 
4.04817 3.99065 0.0 
3.9746 4.03383 0.0 
4.66342 4.05999 0.0 
4.11939 4.09288 0.0 
4.23444 4.04703 0.0 
4.42081 3.97122 0.0 
4.0224 4.02913 0.0 
3.97752 4.04103 0.0 
4.71381 4.04946 0.0 
4.82678 4.05917 0.0 
3.99979 3.98858 0.0 
4.17675 4.04307 0.0 
4.43125 3.88173 0.0 
4.50611 4.04985 0.0 
3.95773 3.93432 0.0 
0 3.17328 0.0 
[...]
<PointData>
  <DataArray type = "Float64" Name="Vitesse" NumberOfComponents="3" format="ascii">
1 0 0.0 
1.00084 0 0.0 
1.00216 0 0.0 
1 0 0.0 
0.836514 0.345874 0.0 
0.72992 0.203886 0.0 
0.176942 -0.0110872 0.0 
0.60131 -0.166468 0.0 
0.948842 -0.31106 0.0 
0.0263154 0.00147812 0.0 
0.0865231 -0.00485047 0.0 
0.358168 0.0297693 0.0 
0.120254 0.0116258 0.0 
0.572289 0.172027 0.0 
0.802951 0.280392 0.0 
0.602535 0.283626 0.0 
0.00130576 -0.000152573 0.0 
0.234118 -0.00529241 0.0 
0.195041 0.0422265 0.0 
1.00979 0 0.0 
0.109249 -0.0113732 0.0 
0.280022 -0.0115727 0.0 
0 0 0.0 
0.223461 -0.00738532 0.0 
1 -4.32943e-187 0.0 
0 0 0.0 
0 0 0.0 
0.0326108 -0.000990756 0.0 
0.513547 0.00508313 0.0 
1.01024 -0.00629866 0.0 
0 0 0.0 
1.02146 -0.0170521 0.0 
0.146382 0.00613893 0.0 
0.0149807 0.000857952 0.0 
0.327284 0.0114183 0.0 
0.822329 0.209004 0.0 
0.840122 0.021352 0.0 
0.173802 -0.00255786 0.0 
0.0549079 -0.0092838 0.0 
0.728809 -0.0428084 0.0 
0 0 0.0 
0.864524 0.136175 0.0 
0.118785 0.0192778 0.0 
0.94701 0.30809 0.0 
0 0 0.0 
0.132638 0.00639741 0.0 
0.812209 -0.000735002 0.0 
0.636666 -0.0523561 0.0 
0.839262 0.205024 0.0 
0.0455175 -0.00781812 0.0 
1.02111 -0.221254 0.0 
0.937599 0.241975 0.0 
0 0 0.0 
0.243354 0.0254945 0.0 
1.03554 -0.0642921 0.0 
0.107298 -0.00075802 0.0 
0.501833 -0.00308852 0.0 
0.30146 0.0895077 0.0 
1e-307 1e-307 0.0 
0 0 0.0 
0 0 0.0 
0.0201589 0.000963742 0.0 
0.0262379 -0.00405499 0.0 
0.391075 0.211728 0.0 
0.839577 0.000961425 0.0 
0.114589 -0.00563002 0.0 
0.0478395 -0.00653858 0.0 
0.0576225 -0.00983747 0.0 
0 0 0.0 
0.233322 0.0481136 0.0 
0.164613 0.00530211 0.0 
0.991253 0.197777 0.0 
1.00246 0.0332465 0.0 
0.0764178 -0.0189949 0.0 
1.0086 -0.0144909 0.0 
0 0 0.0 
0.56382 0.137235 0.0 
0.520769 -0.453833 0.0 
0 0 0.0 
0.0470774 -0.00588986 0.0 
0.920184 0.00742179 0.0 
2.30941e-126 2.33557e-127 0.0 
1.0619 0.121168 0.0 
0.978707 0.0219354 0.0 
0.894359 -0.0616598 0.0 
0.0189172 0.00111152 0.0 
0.588889 0.0497054 0.0 
0.0292154 0.00117873 0.0 
0.177098 0.00644251 0.0 
1.01125 -0.000758041 0.0 
0.0751292 0.00331539 0.0 
0.237192 0.0247031 0.0 
0.0700128 0.00406504 0.0 
1.21202e-05 -1.74158e-06 0.0 
0.36916 -0.00395646 0.0 
0.443465 0.0254419 0.0 
0.650481 0.0942679 0.0 
0.360228 0.0468627 0.0 
0.0946772 -0.0159594 0.0 
0.586239 -0.0380924 0.0 
0.164784 0.00708725 0.0 
0.14175 -0.0138508 0.0 
0.301463 0.0121868 0.0 
0.854049 0.228227 0.0 
0.312237 0.0021218 0.0 
0 0 0.0 
1.01168 0.0279404 0.0 
0.855059 -0.0932988 0.0 
0.00433292 -0.000725473 0.0 
0.187203 0.016289 0.0 
0.124509 -0.00824042 0.0 
0.0327429 -0.0130742 0.0 
0.113311 0.00569887 0.0 
0.77358 0.034163 0.0 
0.524979 -0.0143882 0.0 
0.0970759 -0.00192445 0.0 
0.543045 0.0418139 0.0 
0.704577 0.147981 0.0 
1.00486 -0.0875948 0.0 
4.8236e-10 1.37407e-10 0.0 
0.111264 0.0194123 0.0 
0.3563 -0.019567 0.0 
0.876071 -0.225516 0.0 
0.935195 0.178511 0.0 
0 0 0.0 
0.0149463 -0.00378486 0.0 
0.990156 -0.0351117 0.0 
1.0663 -0.0370099 0.0 
0.208717 0.0178587 0.0 
0.123336 -0.00579108 0.0 
0 0 0.0 
0 0 0.0 
0.143545 -0.00531015 0.0 
1.01947 -0.11616 0.0 
0.123721 -0.0144192 0.0 
0.496979 0.136447 0.0 
0.952228 -0.245071 0.0 
0.901452 0.335319 0.0 
0.17197 0.0221901 0.0 
0 0 0.0 
0.00565703 -0.00091877 0.0 
1.0115 -0.00129386 0.0 
0.899566 -0.0494219 0.0 
0.713248 0.228382 0.0 
1.02301 -0.218824 0.0 
0.0848712 -0.0153442 0.0 
0.0111358 -0.00130172 0.0 
0.224587 -0.0166113 0.0 
0.126527 0.01089 0.0 
1.00033 0.00436871 0.0 
1.00918 -0.00048821 0.0 
0.0653647 -0.0128806 0.0 
0.58205 -0.0106726 0.0 
0.720013 0.00191904 0.0 
0.0707772 -0.0188303 0.0 
0.70631 0.0904015 0.0 
0.203208 -0.0265905 0.0 
0 0 0.0 
0.986873 0.288812 0.0 
0.145127 -0.0136316 0.0 
0.945312 0.139512 0.0 
0.0756953 -0.00911291 0.0 
0.00608383 -0.000700376 0.0 
0.0746912 -0.0133657 0.0 
0.0136497 0.00121369 0.0 
0.00739317 -0.000813777 0.0 
-5.50657e-228 2.30457e-229 0.0 
0.88942 -0.00361491 0.0 
0.256891 -0.0179357 0.0 
0 0 0.0 
2.16713e-06 3.26187e-07 0.0 
0.131004 -0.0199405 0.0 
0.380245 -0.00347038 0.0 
0 0 0.0 
0 0 0.0 
0.906964 0.114328 0.0 
0 0 0.0 
0 0 0.0 
0.0111256 0.000143816 0.0 
0 0 0.0 
0.0396796 0.00737513 0.0 
0.148296 0.000474252 0.0 
0.184332 0.0148295 0.0 
0.849609 -0.0394537 0.0 
0.154281 0.0161596 0.0 
0 0 0.0 
7.74658e-53 7.01938e-54 0.0 
0.478797 -0.0112467 0.0 
0.00807053 0.000409234 0.0 
0.0229396 0.00084744 0.0 
0.176711 0.0112779 0.0 
0.290078 -0.018475 0.0 
0.0594878 -0.00180048 0.0 
0.992044 0.2851 0.0 
0.0769785 -0.0121553 0.0 
0.857562 -0.0128009 0.0 
0.817067 -0.143457 0.0 
0.564991 0.0399978 0.0 
0.721229 -0.0425173 0.0 
0.0141665 -0.0020052 0.0 
0 0 0.0 
0.00622107 -0.00107941 0.0 
0.00876004 -0.00083365 0.0 
0.223657 0.0146326 0.0 
0.106127 0.0032643 0.0 
0.815941 0.365344 0.0 
0.979865 0.000288187 0.0 
0.00050868 6.34468e-05 0.0 
0.145736 0.0338945 0.0 
1.09982 0.0158851 0.0 
0.0573895 0.00306603 0.0 
1.35842e-182 -1.22626e-184 0.0 
0.575541 -0.0117833 0.0 
0.726837 -0.00135142 0.0 
0.164568 -0.0263369 0.0 
0.298559 0.0567615 0.0 
0.0282735 -0.00582449 0.0 
0.141707 -0.0150741 0.0 
0 0 0.0 
0.007339 -0.00334734 0.0 
0.120149 -0.0110119 0.0 
0.306094 0.00449735 0.0 
0.488848 -0.00610148 0.0 
0.203287 0.0239875 0.0 
0 0 0.0 
0.032383 0.000512871 0.0 
0.0151056 0.000293644 0.0 
0.813281 -0.0169 0.0 
0.0698008 -0.00841891 0.0 
0.00509091 -0.000623653 0.0 
1.01407 -0.0112917 0.0 
0.996079 -0.0248206 0.0 
0.0941314 0.00377096 0.0 
0.014769 0.00113637 0.0 
0.014595 -0.00142316 0.0 
1.05025 -0.0221303 0.0 
0.020446 -0.0417436 0.0 
0 0 0.0 
0.0126899 0.000754931 0.0 
0.999848 -0.0108595 0.0 
0.248571 -0.00500518 0.0 
0.35055 -0.103328 0.0 
0.32787 -0.00909501 0.0 
0.51786 0.174316 0.0 
0.413674 0.0248401 0.0 
0.403929 0.0305777 0.0 
0.471946 -0.438306 0.0 
0.794203 0.213565 0.0 
0.133997 -0.0177273 0.0 
0.00599283 -0.000544094 0.0 
0.257733 0.00293094 0.0 
0.960382 0.0449553 0.0 
0.494302 0.00921659 0.0 
0.841109 0.271041 0.0 
1.0357 0.106093 0.0 
0.88151 0.0121014 0.0 
0.822823 -0.0232685 0.0 
0.781087 0.338984 0.0 
0.28002 -0.0195778 0.0 
1.00263 0 0.0 
0.133537 0.00783015 0.0 
0.00938648 0.000176568 0.0 
0.608371 -0.190316 0.0 
0 0 0.0 
1.01123 -0.00137256 0.0 
0.349528 -0.171954 0.0 
0.921698 0.323104 0.0 
0.549749 0.297797 0.0 
0.0706593 -0.00808534 0.0 
0.0123951 0.000103644 0.0 
0.997997 0.278605 0.0 
0.932761 0.104737 0.0 
0.407384 0.0288896 0.0 
0.426978 0.0481591 0.0 
0.0108341 0.000522393 0.0 
1.08465 0.165638 0.0 
0.00193789 0.000220492 0.0 
0.0572801 0.000148907 0.0 
0.346285 0.000477798 0.0 
0 0 0.0 
1.00273 -0.00616954 0.0 
0.151554 -0.012235 0.0 
1.01017 -0.000434204 0.0 
0 0 0.0 
0.983769 0.0953344 0.0 
0.884682 -0.0503115 0.0 
2.64303e-05 -3.80204e-06 0.0 
0.0514212 -0.0126245 0.0 
0.00851976 0.000496481 0.0 
0.761813 -0.433209 0.0 
0.0199281 0.00192412 0.0 
0.550299 0.014915 0.0 
6.62564e-184 -4.82866e-185 0.0 
0 0 0.0 
0 0 0.0 
0 0 0.0 
0 0 0.0 
0.194143 0.00774856 0.0 
0.0423988 0.00638167 0.0 
0.747461 0.354091 0.0 
1.00981 -0.00166698 0.0 
0 0 0.0 
0 0 0.0 
0.740288 0.0583329 0.0 
0.00705285 0.000608829 0.0 
0.185783 0.0198351 0.0 
1.02982 0.0449412 0.0 
2.72158e-06 -1.05694e-07 0.0 
0.815908 0.0255743 0.0 
0 0 0.0 
0.814767 0.325786 0.0 
1.00841 -0.000138887 0.0 
0.845812 -0.368495 0.0 
0 0 0.0 
0.139222 0.0052092 0.0 
1.05344 -0.175433 0.0 
0.932452 0.00279957 0.0 
1.00864 0.000777057 0.0 
0 0 0.0 
0 0 0.0 
0.00877735 -0.00103887 0.0 
0.00910368 0.000500924 0.0 
0.612065 0.322326 0.0 
1.72543e-68 7.90149e-69 0.0 
0.134923 0.0960485 0.0 
0.906981 0.211079 0.0 
0.372756 -0.0207004 0.0 
0.336725 0.0290147 0.0 
2.41282e-98 -3.23615e-99 0.0 
0 0 0.0 
0.675104 0.293426 0.0 
0 0 0.0 
0 0 0.0 
1.01126 -0.00148064 0.0 
0.421785 -0.013426 0.0 
1.01725 0.192413 0.0 
0.671933 -0.0409335 0.0 
0.841945 0.0782766 0.0 
0 0 0.0 
0 0 0.0 
0.419799 0.00698054 0.0 
0.0426352 0.00248877 0.0 
0.890467 0.0171566 0.0 
0.0602042 -0.00130038 0.0 
0 0 0.0 
0.663437 0.372579 0.0 
0.00446654 -0.00084172 0.0 
0.00672469 -0.000335322 0.0 
0.0651533 -0.00472254 0.0 
0.0212595 0.00112405 0.0 
0.74173 0.328321 0.0 
0.535087 -0.00925344 0.0 
0.000113653 -1.71022e-05 0.0 
0.922782 -0.197958 0.0 
0.120325 0.0132786 0.0 
0.541395 -0.342545 0.0 
0.0547224 -0.00623434 0.0 
0 0 0.0 
0.79847 0.112482 0.0 
0.187126 -0.0154996 0.0 
0.143698 0.00391828 0.0 
0 0 0.0 
0.191602 0.0144584 0.0 
1.08451 0.205078 0.0 
0.298204 -0.00296753 0.0 
0.989911 -0.311093 0.0 
0 0 0.0 
0.376599 0.0178485 0.0 
0 0 0.0 
0.38647 0.0352466 0.0 
6.48869e-64 7.25965e-65 0.0 
0.905962 0.0968865 0.0 
0 0 0.0 
0.492161 -0.0485493 0.0 
0 0 0.0 
0.27635 0.00203706 0.0 
0 0 0.0 
0.00805336 0.000470302 0.0 
0.645829 0.00784547 0.0 
0.131426 0.0173573 0.0 
0.999909 0.000980516 0.0 
0.848987 0.175966 0.0 
0 0 0.0 
0.512928 -0.0968363 0.0 
1.04979 0.00489334 0.0 
0.723009 0.26054 0.0 
0.591125 -0.32104 0.0 
5.59005e-05 5.36038e-06 0.0 
0.287272 -0.00710012 0.0 
0 0 0.0 
0.338243 0.0666933 0.0 
0.771451 0.100387 0.0 
0.00133449 -1.93031e-06 0.0 
0 0 0.0 
1.00918 0 0.0 
0.00653141 -0.000933817 0.0 
0.991465 -0.322603 0.0 
0.850686 0.354451 0.0 
0.885427 0.345897 0.0 
0 0 0.0 
0 0 0.0 
1.00002 0.000116396 0.0 
0 0 0.0 
0.647268 0.0728298 0.0 
1.01504 0.00701887 0.0 
0.110729 0.0160303 0.0 
0.311211 -0.00963924 0.0 
0.115885 0.00195446 0.0 
0.984203 -0.0604024 0.0 
0.324244 0.0896274 0.0 
0.677998 0.223003 0.0 
0.850095 0.316631 0.0 
0.813136 -0.15107 0.0 
0.10608 -0.00952415 0.0 
1.02769 0.00589793 0.0 
0.475399 -0.074092 0.0 
0.66795 0.0195412 0.0 
0.884629 -0.223862 0.0 
0.0637269 -0.00760437 0.0 
0 0 0.0 
0.0245137 0.00062322 0.0 
0.951784 -0.014038 0.0 
0.815892 -0.434699 0.0 
0.114282 -0.0227463 0.0 
0.0421754 0.000464645 0.0 
1.32679e-61 7.25301e-62 0.0 
1.0691 -0.225355 0.0 
0.363564 0.00659807 0.0 
0.265119 -0.00822157 0.0 
1.68223e-61 6.72429e-62 0.0 
0 0 0.0 
0.442774 -0.0365241 0.0 
0.349363 0.00589757 0.0 
0.972474 -0.0469567 0.0 
0 0 0.0 
0.744856 0.148141 0.0 
0.481717 -0.0425305 0.0 
0 0 0.0 
0 0 0.0 
0.029313 0.00451462 0.0 
0.949829 -0.225118 0.0 
0.56897 0.0492045 0.0 
0.493235 -0.0806912 0.0 
0.766523 0.280248 0.0 
0.0873769 0.00361216 0.0 
0.71107 0.25404 0.0 
0.183443 0.00481231 0.0 
0 0 0.0 
0.00463076 -0.00132707 0.0 
0 0 0.0 
0.658486 -0.00638517 0.0 
0.790575 -0.155369 0.0 
0 0 0.0 
0 0 0.0 
0.749146 0.225279 0.0 
0.443952 0.00291128 0.0 
0.0525821 -3.76303e-05 0.0 
0 0 0.0 
0.680661 0.148824 0.0 
0.0943258 -0.00818218 0.0 
1.04937 0.230441 0.0 
0 0 0.0 
0.018883 -0.000234302 0.0 
0.406088 0.207737 0.0 
0.709332 0.177238 0.0 
0.0412099 -0.00431038 0.0 
0.199449 -0.0191539 0.0 
0.463053 -0.436763 0.0 
0 0 0.0 
1.05297 -0.0178629 0.0 
0 0 0.0 
0.865912 -0.161686 0.0 
1 0 0.0 
0.256196 0.0115664 0.0 
0.972818 -0.177032 0.0 
0.290877 0.0926233 0.0 
0.585863 0.302552 0.0 
0.197067 -0.00371742 0.0 
0.456383 -0.295385 0.0 
1.12085 0.123294 0.0 
0.763386 -0.328186 0.0 
2.27857e-05 -2.76281e-06 0.0 
0.808394 -0.320907 0.0 
1.00473 0 0.0 
0.833383 -0.364296 0.0 
0.0155481 -0.00225754 0.0 
0.585756 0.0132171 0.0 
0.268463 0.00233274 0.0 
0.245534 0.00604711 0.0 
0.881991 -0.390086 0.0 
0.13466 0.00386972 0.0 
0 0 0.0 
1.0413 -0.238048 0.0 
1.15008e-67 4.59714e-68 0.0 
0.673214 0.0689332 0.0 
0.0257667 0.0015889 0.0 
0.777487 0.00198858 0.0 
0.00371304 -0.000232183 0.0 
0.872179 -0.399613 0.0 
0.00966792 0.00121064 0.0 
0.634838 -0.102054 0.0 
0.00454124 -0.000738863 0.0 
1.0023 -0.000829367 0.0 
0.597511 0.342372 0.0 
0 0 0.0 
0 0 0.0 
0.323878 0.0115752 0.0 
0.120011 -0.0100896 0.0 
1.00654 -0.000299908 0.0 
0.134968 -0.0136758 0.0 
0.0722261 0.00797474 0.0 
0 0 0.0 
0.934892 0.128816 0.0 
0 0 0.0 
0.578251 0.00737464 0.0 
0 0 0.0 
0.303966 0.00500718 0.0 
0.298252 0.086728 0.0 
0.0125034 -0.00164039 0.0 
0 0 0.0 
0 0 0.0 
0.0275324 0.00100251 0.0 
0.982352 -0.0255908 0.0 
0.202408 -0.0181235 0.0 
0 0 0.0 
0.763798 0.0803046 0.0 
0.00565954 0.000483699 0.0 
0.67967 -0.0774243 0.0 
0.813793 -0.0934589 0.0 
0.814764 -0.019226 0.0 
1.0051 -0.048045 0.0 
0.00548643 0.000953299 0.0 
0 0 0.0 
0.178323 -0.0112346 0.0 
0 0 0.0 
0.304912 -0.00882855 0.0 
0.719862 0.127652 0.0 
0.653322 0.0237703 0.0 
0.87455 0.337212 0.0 
0.0279 -9.53555e-05 0.0 
0.774298 0.123571 0.0 
0 0 0.0 
0.0349344 0.000855777 0.0 
0.0139146 0.000617648 0.0 
0.246173 0.0688471 0.0 
0.938572 0.291254 0.0 
0.366134 0.00401408 0.0 
0.678968 0.0613963 0.0 
0.743555 0.110499 0.0 
0.913915 0.330405 0.0 
0.885969 0.322326 0.0 
0.159979 0.00462336 0.0 
0 0 0.0 
0.224527 -0.00421769 0.0 
0.876879 0.347351 0.0 
0.107444 -0.0114285 0.0 
0.814314 -0.0272115 0.0 
0.526884 0.018292 0.0 
0.468895 -0.0335292 0.0 
0.0510726 0.00195944 0.0 
0.9998 0.00330276 0.0 
0.92547 0.0641079 0.0 
0.0689909 0.00909878 0.0 
0.623035 0.195741 0.0 
0.58072 0.0297981 0.0 
0.639332 0.0531878 0.0 
0.0180891 -0.000874867 0.0 
0.661402 -0.051569 0.0 
1.91637e-09 1.45491e-10 0.0 
0 0 0.0 
0.581013 0.00239361 0.0 
0.000371395 1.97617e-05 0.0 
0.620817 0.0444109 0.0 
0.00296571 -0.000243486 0.0 
1.0014 0.00300652 0.0 
0.181424 0.00244054 0.0 
0.757242 -0.0978361 0.0 
0.000169105 -1.8293e-05 0.0 
0.041589 -0.00572836 0.0 
0.613576 0.0163016 0.0 
0.117221 -0.00468631 0.0 
0.0919249 0.002149 0.0 
0.257786 0.0221636 0.0 
1.059 0.151891 0.0 
0.00153054 -0.000381664 0.0 
0.776898 -0.0604899 0.0 
0.893469 0.278071 0.0 
1.00919 -0.000660055 0.0 
1.00315 0 0.0 
0.506409 0.0760813 0.0 
0.352858 -0.0094829 0.0 
1.01175 -0.0725729 0.0 
0.757239 0.252127 0.0 
1.01798 0.274469 0.0 
0.0209876 0.00192694 0.0 
0.817934 0.0590781 0.0 
1.00001 0.000280172 0.0 
1.06201 -0.0500323 0.0 
0.032272 -0.00910121 0.0 
0.248113 0.00870561 0.0 
0.0101179 0.000857067 0.0 
0.98462 -0.0468841 0.0 
0.35509 0.0113708 0.0 
0.261653 0.0141455 0.0 
0.343803 0.0614794 0.0 
1.00104 0.00322154 0.0 
0.334725 -0.0104366 0.0 
0 0 0.0 
0 0 0.0 
0.144097 0.00220044 0.0 
0 0 0.0 
0.281365 0.0221113 0.0 
0.667986 -0.123371 0.0 
0.226542 0.00016438 0.0 
0.29892 0.016483 0.0 
0.754819 0.0930491 0.0 
0.847544 0.339183 0.0 
0.628379 0.359628 0.0 
0.631951 0.218083 0.0 
0.357162 0.0113939 0.0 
0.993948 0.05974 0.0 
0.0677141 -0.0100357 0.0 
1.03432 0.137215 0.0 
0.136913 0.113018 0.0 
0 0 0.0 
0.975616 -0.129176 0.0 
0 0 0.0 
0.260096 0.022855 0.0 
0 0 0.0 
0.90241 0.337721 0.0 
1.00846 -0.000369365 0.0 
0.889064 -0.0123328 0.0 
0.000303776 -2.2724e-05 0.0 
0.277805 -0.00357256 0.0 
0 0 0.0 
0.253531 0.0305074 0.0 
0 0 0.0 
0.0128887 -0.00136793 0.0 
0.59178 0.0123356 0.0 
0 0 0.0 
0.820944 0.302611 0.0 
0.954512 -0.204575 0.0 
0.307096 0.012019 0.0 
0.630016 0.119129 0.0 
0.537258 -0.00155994 0.0 
0.436886 -0.000967458 0.0 
0 0 0.0 
0.807433 -0.071047 0.0 
0.230481 0.00369816 0.0 
0.826114 -0.0472982 0.0 
1.05388 0.0179921 0.0 
0 0 0.0 
1.03668 0.0512946 0.0 
0.45099 -0.00825451 0.0 
0.520306 0.0191016 0.0 
0.0304086 0.000964597 0.0 
0 0 0.0 
0.00154527 2.08799e-05 0.0 
0.526809 -0.00385046 0.0 
1.00767 0 0.0 
0.00865015 -0.00152134 0.0 
1.07926 -0.00110854 0.0 
0 0 0.0 
1.01341 0.0117868 0.0 
1.00965 -0.000685007 0.0 
1 0 0.0 
0.959787 0.080589 0.0 
0.633732 0.0765918 0.0 
0 0 0.0 
0.416782 0.0231613 0.0 
0.85397 -0.206541 0.0 
1.01048 -0.0056925 0.0 
0.591274 0.000672012 0.0 
0.000161722 -1.66346e-05 0.0 
1.00612 0.26757 0.0 
1.07524 0.144429 0.0 
0.960998 0.287936 0.0 
0.587765 -0.123901 0.0 
0.836186 0.259022 0.0 
0 0 0.0 
1.12263 0.0748849 0.0 
1.02061 -0.147172 0.0 
0.664285 -0.0656192 0.0 
0.867583 -0.18705 0.0 
1.01473 0.255706 0.0 
0.00695225 -0.000740443 0.0 
1.00728 0.197084 0.0 
0.592421 -0.00155505 0.0 
0.256646 0.0054542 0.0 
0.0829778 -0.00672209 0.0 
0.55586 -0.098869 0.0 
0.248496 -0.000416452 0.0 
0.295769 0.00389785 0.0 
0.70568 -0.0593838 0.0 
0.866568 -0.0954131 0.0 
9.17956e-62 3.66929e-62 0.0 
0.537618 -0.0506552 0.0 
1 0 0.0 
0.0824684 0.00865895 0.0 
0.787952 0.261973 0.0 
0.427361 -0.00166329 0.0 
0.0105798 0.00133997 0.0 
0 0 0.0 
0.945866 -0.0458146 0.0 
1.05595 -0.0124844 0.0 
0.851752 0.0371308 0.0 
0.923451 0.256507 0.0 
0.890203 -0.207738 0.0 
1.00797 0 0.0 
0.00677892 0.00115882 0.0 
1.01103 2.37879e-05 0.0 
0.00107574 -0.000244597 0.0 
0.218417 0.0015442 0.0 
0.00632433 -0.000890038 0.0 
0.968421 -0.0471369 0.0 
0 0 0.0 
0.388687 -0.00833807 0.0 
1.00922 0 0.0 
0.539393 -0.0111386 0.0 
0 0 0.0 
0 0 0.0 
0.0169634 0.000631691 0.0 
0.949067 0.299544 0.0 
0.802505 0.0373815 0.0 
1.00965 -0.000138829 0.0 
0.0094634 -0.000172097 0.0 
0 0 0.0 
0.655001 -0.0184722 0.0 
0.383301 0.0449142 0.0 
0 0 0.0 
0.140647 -0.00852978 0.0 
0.0233528 -0.00223153 0.0 
0.649772 0.0492527 0.0 
0.101443 0.00550508 0.0 
0.267939 0.024652 0.0 
0.418903 -0.0110361 0.0 
0.106714 0.00551187 0.0 
0.182482 0.0104149 0.0 
0.970782 0.16396 0.0 
0.99922 -0.239417 0.0 
0 0 0.0 
0 0 0.0 
0.831386 -0.0382235 0.0 
0 0 0.0 
0.983436 0.0184094 0.0 
0.898456 0.187479 0.0 
0.228288 0.0118952 0.0 
1.10751 0.14253 0.0 
0.0160597 0.000308683 0.0 
0.791742 0.167921 0.0 
0.652857 0.30337 0.0 
0.999629 -0.000239813 0.0 
0.400336 0.177242 0.0 
0.377388 -0.0308645 0.0 
0.0145477 0.000521818 0.0 
0.0844784 0.0040402 0.0 
0 0 0.0 
0.734232 0.00467887 0.0 
0.930939 0.0957653 0.0 
0.527688 -0.00373152 0.0 
0.497591 -0.0404638 0.0 
0.00113881 -8.9635e-05 0.0 
0.523429 -0.000656186 0.0 
0.000620605 -2.56403e-05 0.0 
1.01319 0.00276469 0.0 
0 0 0.0 
0.99341 0.000506242 0.0 
0.863835 0.0114901 0.0 
0.976185 0.0106373 0.0 
0.013868 0.000645601 0.0 
0.207401 -0.0176953 0.0 
1.06731 -0.146503 0.0 
0 0 0.0 
0.934804 -0.329066 0.0 
0.485138 -0.0217592 0.0 
0 0 0.0 
0.140446 -0.0150132 0.0 
1.07643 0.0504286 0.0 
0.664691 0.142363 0.0 
0.0505626 0.0362785 0.0 
0.0359168 -0.00290587 0.0 
0.428739 -0.015404 0.0 
0.998048 0.00335203 0.0 
0.27949 -0.0135068 0.0 
0.901931 0.106579 0.0 
0.17658 0.000623057 0.0 
1.06655 -0.0346479 0.0 
0.606689 -0.0276101 0.0 
1.0169 -0.00174155 0.0 
0 0 0.0 
0.862695 -0.134848 0.0 
1 0 0.0 
0.975479 -0.0867872 0.0 
0.00448171 -0.000492495 0.0 
0 0 0.0 
1.00035 0.0004208 0.0 
0.345892 -0.0112503 0.0 
0 0 0.0 
0.819466 0.0940741 0.0 
0.806139 0.0777302 0.0 
1.09798 0.0461404 0.0 
0.815333 -0.0917583 0.0 
0 0 0.0 
0 0 0.0 
0 0 0.0 
0.0400639 -0.00125946 0.0 
1.01029 -0.000203912 0.0 
1.00928 0 0.0 
0.176335 0.0119224 0.0 
0.996046 -0.006683 0.0 
0.997855 0.0238236 0.0 
0 0 0.0 
0.0218599 0.000233602 0.0 
0.140867 0.00649732 0.0 
0.51637 -0.0230271 0.0 
0.757182 -0.0252515 0.0 
0 0 0.0 
0 0 0.0 
0.226512 9.08211e-05 0.0 
0.158434 0.00822815 0.0 
0.53935 0.00811095 0.0 
0.0381084 -0.00470859 0.0 
1.01003 -0.286635 0.0 
0.0930927 -0.162068 0.0 
0 0 0.0 
0 0 0.0 
0 0 0.0 
0 0 0.0 
0.879482 -0.120238 0.0 
1.22584e-06 -2.0235e-07 0.0 
0 0 0.0 
0.207568 -0.0107729 0.0 
0.0322515 -0.000893018 0.0 
0.000910026 -0.000132811 0.0 
0.977312 -0.339524 0.0 
0.259475 0.0439983 0.0 
0.590756 0.00310941 0.0 
0.0613239 0.00620517 0.0 
0 0 0.0 
1.10599 0.0991504 0.0 
0.817516 0.0993512 0.0 
1.01615 -0.00707264 0.0 
0.829202 0.0394265 0.0 
0.0622318 -0.00694709 0.0 
1.01028 0.242897 0.0 
0.700888 0.0160222 0.0 
0.0198323 0.00143545 0.0 
1.00111 0.00238329 0.0 
0.0813084 -0.00678811 0.0 
0.450628 0.022152 0.0 
0 0 0.0 
0.319926 -0.000145572 0.0 
0.379275 0.0272069 0.0 
0.969482 0.203015 0.0 
0.0138021 0.00077163 0.0 
0.0607656 0.0739823 0.0 
1.4852e-135 4.83406e-137 0.0 
0.46468 0.0695548 0.0 
0.659142 -0.00163599 0.0 
0.427781 0.205501 0.0 
0.0129879 -0.00166718 0.0 
2.31284e-05 -2.13729e-06 0.0 
0.0175303 0.000439402 0.0 
0.378541 -0.000690885 0.0 
0.0132451 0.000692121 0.0 
1.01333 0.00736009 0.0 
0.505039 0.0406933 0.0 
0 0 0.0 
0.446281 0.0483213 0.0 
1.00082 0.00697435 0.0 
0.123174 0.00517433 0.0 
0 0 0.0 
0.904709 -0.244613 0.0 
0.0369327 -0.0053411 0.0 
0.003772 -0.000511853 0.0 
0 0 0.0 
0.604812 -0.277712 0.0 
0.00594921 -0.000599316 0.0 
0.160995 0.00395259 0.0 
1.01235 -0.00271869 0.0 
0.021398 -0.00078548 0.0 
0.0164444 0.00110787 0.0 
0.830989 -0.255764 0.0 
0 0 0.0 
0.127482 -0.00312838 0.0 
0.266404 -0.00145319 0.0 
0.10473 0.00439573 0.0 
1.08988 -0.146163 0.0 
0 0 0.0 
0.324946 0.00327125 0.0 
0.371714 -0.00161076 0.0 
0.0877458 -0.00966283 0.0 
1.00074 -0.0327558 0.0 
1.00001 5.05507e-05 0.0 