<VTKFile type="UnstructuredGrid" version="0.1" byte_order="LittleEndian">
  <UnstructuredGrid>
    <Piece NumberOfPoints="13969" NumberOfCells="27786">
      <Points>
        <DataArray type = "Float64" NumberOfComponents="3" format="ascii">
0 0 0.0 
14 0 0.0 
14 8 0.0 
0 8 0.0 
4.30047 4.0807 0.0 
4.21317 3.90504 0.0 
5.15553 4.02606 0.0 
4.85757 3.99018 0.0 
4.01347 3.94819 0.0 
4.11752 3.96597 0.0 
4.41199 3.98965 0.0 
4.6932 4.07079 0.0 
4.96592 4.01902 0.0 
4.51993 3.97572 0.0 
4.41752 3.90265 0.0 
5.05172 3.98935 0.0 
4.31474 4.06884 0.0 
4.61428 4.05602 0.0 
4.68965 4.06343 0.0 
4.93511 4.02771 0.0 
8.40909 0 0.0 
4.79858 4.05061 0.0 
4.39709 4.07855 0.0 
4.85639 3.99264 0.0 
3.95132 3.92388 0.0 
3.96606 4.23697 0.0 
5.66163 4.13138 0.0 
7.58966 3.93967 0.0 
4.83816 4.02886 0.0 
4.06288 4.03688 0.0 
4.33109 3.95575 0.0 
4.64406 4.05245 0.0 
5.6536 4.05345 0.0 
4.44433 4.07968 0.0 
3.92012 4.22286 0.0 
4.46576 4.06638 0.0 
4.17179 3.97032 0.0 
4.95161 3.9856 0.0 
4.96884 3.9964 0.0 
4.09422 4.06655 0.0 
4.17498 4.06183 0.0 
4.40845 4.077 0.0 
7.79251 4.2449 0.0 
4.18875 3.93918 0.0 
4.51194 4.04817 0.0 
4.42069 4.06816 0.0 
4.64458 3.95384 0.0 
4.07918 3.97615 0.0 
4.56109 4.06807 0.0 
4.05789 4.06544 0.0 
4.10075 4.03591 0.0 
5.10155 4.0391 0.0 
4.04073 4.00277 0.0 
4.94964 4.0102 0.0 
4.6665 4.06833 0.0 
4.09973 4.06883 0.0 
4.21041 4.06744 0.0 
4.0631 3.94627 0.0 
4.09324 4.07263 0.0 
4.48463 4.0392 0.0 
5.01594 3.97412 0.0 
4.65886 4.06264 0.0 
6.07082 3.104 0.0 
5.02574 4.00669 0.0 
4.06915 4.04534 0.0 
4.07686 3.98202 0.0 
4.06417 3.99461 0.0 
4.08538 4.02507 0.0 
4.85214 4.03827 0.0 
4.56122 3.97775 0.0 
4.4821 3.98597 0.0 
3.99368 4.01426 0.0 
5.11865 3.98881 0.0 
4.25483 3.96566 0.0 
4.84091 4.00873 0.0 
4.94587 4.02527 0.0 
4.5104 4.08178 0.0 
4.70666 4.03293 0.0 
5.03044 4.01281 0.0 
4.98031 4.02036 0.0 
4.58916 4.05925 0.0 
4.4004 4.127 0.0 
5.00489 4.02516 0.0 
5.03788 3.97658 0.0 
4.48341 4.0268 0.0 
4.09424 4.05815 0.0 
8.35335 2.53959 0.0 
3.99988 3.98708 0.0 
6.34879 5.19935 0.0 
4.21788 3.91237 0.0 
4.37177 4.07231 0.0 
4.96859 4.01626 0.0 
4.21995 4.06217 0.0 
5.41155 3.85481 0.0 
0 2.35318 0.0 
10.5547 3.45901 0.0 
4.02985 4.02295 0.0 
3.96707 3.95086 0.0 
4.20058 3.96338 0.0 
8.15558 3.89055 0.0 
7.59514 2.94404 0.0 
4.35158 4.11683 0.0 
4.41247 4.07233 0.0 
4.81231 4.00654 0.0 
9.28834 2.4256 0.0 
4.14165 4.07849 0.0 
4.05664 3.97681 0.0 
4.01925 4.05221 0.0 
4.26168 4.12093 0.0 
4.89612 4.00784 0.0 
4.17786 4.07881 0.0 
4.14394 3.94806 0.0 
5.04607 4.02448 0.0 
4.1628 3.94775 0.0 
4.63833 3.96699 0.0 
5.09798 4.0273 0.0 
0 5.51085 0.0 
4.08831 4.06631 0.0 
4.52153 3.97613 0.0 
6.04158 4.01215 0.0 
4.03357 3.99646 0.0 
4.4175 4.12976 0.0 
4.78602 4.01564 0.0 
4.91679 4.00524 0.0 
4.51862 3.95957 0.0 
4.32012 3.95203 0.0 
4.73481 4.06772 0.0 
5.11868 4.03418 0.0 
5.01116 4.01057 0.0 
4.35718 3.9696 0.0 
4.6936 3.97047 0.0 
4.52576 4.0968 0.0 
4.76597 4.05418 0.0 
5.0786 4.01053 0.0 
5.03627 3.96239 0.0 
3.97234 4.03785 0.0 
4.17204 3.92436 0.0 
4.20386 4.09167 0.0 
5.00576 3.98835 0.0 
4.03118 4.02797 0.0 
4.00748 4.00932 0.0 
4.00273 4.05728 0.0 
4.82341 4.02013 0.0 
4.59634 4.088 0.0 
4.98971 4.00888 0.0 
3.98172 4.06844 0.0 
4.24696 3.96636 0.0 
4.99603 3.97729 0.0 
4.89711 4.00935 0.0 
4.05517 4.04952 0.0 
4.1511 4.07689 0.0 
5.09719 4.01632 0.0 
4.25672 3.97834 0.0 
4.05664 3.81012 0.0 
4.95286 4.03879 0.0 
4.74707 3.98536 0.0 
4.0089 3.92893 0.0 
8.95282 7.51699 0.0 
4.79039 4.04828 0.0 
4.35794 4.0708 0.0 
5.90831 4.24453 0.0 
4.24915 4.05618 0.0 
4.90045 4.03185 0.0 
4.43225 4.08714 0.0 
4.81338 3.97625 0.0 
4.26747 4.03967 0.0 
4.5294 3.97213 0.0 
4.9912 4.02804 0.0 
4.5932 3.98049 0.0 
4.06702 3.97153 0.0 
5.07235 3.99531 0.0 
4.58776 3.97772 0.0 
4.0393 4.0303 0.0 
4.98997 4.02393 0.0 
1.73352 2.48922 0.0 
3.99439 4.02858 0.0 
5.01943 4.02273 0.0 
3.96199 4.03038 0.0 
5.04864 4.04382 0.0 
4.1584 4.03851 0.0 
4.16419 4.06029 0.0 
4.25228 4.06387 0.0 
4.10116 3.97726 0.0 
4.18813 4.09432 0.0 
4.88438 4.03747 0.0 
5.03245 3.98297 0.0 
5.03899 4.01992 0.0 
4.08146 3.99499 0.0 
4.4299 3.96875 0.0 
4.04219 4.00834 0.0 
11.1892 4.30372 0.0 
4.65737 4.07495 0.0 
4.4027 4.06153 0.0 
4.3193 3.96925 0.0 
4.63763 4.0403 0.0 
5.05402 4.03163 0.0 
4.71222 4.05468 0.0 
4.6613 4.12222 0.0 
4.16902 3.98151 0.0 
4.29391 4.08249 0.0 
4.53892 4.06269 0.0 
4.11763 4.04808 0.0 
4.25158 3.98522 0.0 
3.99543 4.04517 0.0 
5.29146 4.1495 0.0 
4.27462 4.13782 0.0 
3.9766 5.44518 0.0 
4.213 4.06906 0.0 
4.0583 3.981 0.0 
5.0636 3.98872 0.0 
4.29259 4.04824 0.0 
3.98227 4.04617 0.0 
3.98273 4.00621 0.0 
7.23882 3.93843 0.0 
4.17478 4.06935 0.0 
4.98107 3.97981 0.0 
4.63451 4.0786 0.0 
5.03571 4.00684 0.0 
5.10865 4.0171 0.0 
4.32023 4.06955 0.0 
4.98218 4.02738 0.0 
3.97238 3.87987 0.0 
4.76182 4.05781 0.0 
4.27406 4.08825 0.0 
3.95046 4.00001 0.0 
4.45695 4.07917 0.0 
4.22383 4.06305 0.0 
4.95726 3.98508 0.0 
4.49863 4.06529 0.0 
5.15771 3.9871 0.0 
4.78454 4.04476 0.0 
4.58126 4.05914 0.0 
7.10688 3.81214 0.0 
4.32671 4.06278 0.0 
4.94673 4.01293 0.0 
4.41474 4.04955 0.0 
4.69855 3.98487 0.0 
4.75265 3.98187 0.0 
4.37317 4.11564 0.0 
3.99336 3.97236 0.0 
4.48912 4.09196 0.0 
4.609 3.87673 0.0 
4.01307 3.98609 0.0 
4.59699 4.06543 0.0 
4.98463 4.01475 0.0 
4.88474 4.04745 0.0 
4.00692 3.98949 0.0 
5.00134 4.00081 0.0 
4.66759 4.07173 0.0 
4.43859 3.95012 0.0 
4.16838 4.0885 0.0 
4.03283 4.06047 0.0 
4.44872 3.99608 0.0 
5.01224 3.97834 0.0 
4.02873 4.02055 0.0 
4.24133 4.05308 0.0 
4.30568 4.07247 0.0 
3.9871 3.98426 0.0 
3.8957 4.03142 0.0 
4.76914 3.98058 0.0 
4.43104 3.97091 0.0 
4.6562 3.98046 0.0 
4.84631 4.04045 0.0 
4.29816 4.08875 0.0 
4.58139 4.06011 0.0 
4.94942 3.99694 0.0 
4.40159 3.88603 0.0 
4.43737 3.96537 0.0 
4.13251 4.05883 0.0 
4.12639 4.05926 0.0 
4.02105 4.04639 0.0 
4.84937 3.97481 0.0 
4.96597 3.99132 0.0 
6.15869 4.20766 0.0 
4.84303 4.02911 0.0 
4.28115 4.08293 0.0 
4.25325 4.08014 0.0 
5.4186 4.02675 0.0 
4.02949 3.97629 0.0 
4.23958 4.1146 0.0 
4.98174 4.03773 0.0 
4.76719 3.98557 0.0 
8.45071 4.28616 0.0 
4.53305 3.95491 0.0 
4.11193 3.9679 0.0 
4.00488 3.99671 0.0 
4.25288 4.08703 0.0 
4.51073 4.06444 0.0 
5.86086 3.89107 0.0 
4.00975 4.04675 0.0 
5.32256 4.17025 0.0 
5.8622 0.652372 0.0 
2.67239 0 0.0 
4.06818 4.05086 0.0 
4.10353 4.04265 0.0 
3.98712 4.04304 0.0 
4.79871 3.96978 0.0 
4.20438 4.04613 0.0 
4.24216 3.93273 0.0 
4.03695 4.06573 0.0 
4.67014 4.07643 0.0 
4.94623 3.99501 0.0 
4.1505 3.96555 0.0 
4.3702 4.09183 0.0 
4.23233 4.101 0.0 
4.34889 3.94164 0.0 
4.20051 4.07495 0.0 
4.71653 4.04561 0.0 
4.18755 4.11048 0.0 
4.80811 4.04482 0.0 
4.49695 4.05573 0.0 
4.95617 3.99688 0.0 
4.29625 3.95054 0.0 
4.71035 4.02722 0.0 
4.26092 4.08083 0.0 
4.19153 3.93 0.0 
8.75684 0.585272 0.0 
4.0075 3.98799 0.0 
3.98742 4.01904 0.0 
3.9788 4.01158 0.0 
4.07198 4.07393 0.0 
4.99347 4.02007 0.0 
3.99745 3.98903 0.0 
4.00749 3.97714 0.0 
4.44141 4.05213 0.0 
4.38202 4.0683 0.0 
4.57096 4.06907 0.0 
4.46408 4.06756 0.0 
4.01284 3.99994 0.0 
4.8177 3.98899 0.0 
4.0277 4.00858 0.0 
4.36699 4.07544 0.0 
4.44438 4.05445 0.0 
4.00489 3.99798 0.0 
4.29308 4.05407 0.0 
4.02759 4.00199 0.0 
4.00854 4.04134 0.0 
8.03046 5.83915 0.0 
4.43854 4.04123 0.0 
4.17471 4.08709 0.0 
6.11161 3.87395 0.0 
5.05181 3.97629 0.0 
5.00162 3.97999 0.0 
4.689 4.06029 0.0 
4.27135 3.93977 0.0 
4.65846 4.05141 0.0 
4.47599 4.07396 0.0 
3.9831 3.93993 0.0 
4.25008 4.04533 0.0 
4.03091 3.97176 0.0 
4.01731 3.97083 0.0 
4.83553 4.03853 0.0 
4.24651 4.05075 0.0 
4.09154 3.93527 0.0 
4.20063 3.95769 0.0 
4.6559 7.60199 0.0 
4.24196 3.98731 0.0 
4.10803 3.99306 0.0 
4.28339 3.97603 0.0 
4.3916 3.89651 0.0 
4.66696 4.06513 0.0 
3.99835 4.02918 0.0 
12.2764 4.67793 0.0 
8.56391 4.58151 0.0 
6.87399 2.90186 0.0 
4.12905 3.94147 0.0 
5.3262 4.0473 0.0 
5.05532 3.96524 0.0 
5.81905 4.13653 0.0 
4.6346 4.05528 0.0 
3.99623 4.03627 0.0 
4.03277 4.00935 0.0 
4.05133 4.02283 0.0 
4.40207 3.98162 0.0 
4.98228 4.02307 0.0 
4.45333 3.95732 0.0 
4.1755 3.94311 0.0 
4.31174 4.0486 0.0 
4.0781 3.98964 0.0 
4.22361 4.04691 0.0 
4.29004 4.08476 0.0 
3.89305 4.01486 0.0 
4.02475 4.02781 0.0 
5.29299 4.04736 0.0 
4.24692 3.97915 0.0 
4.00652 4.03234 0.0 
5.6179 3.88878 0.0 
4.48526 3.95705 0.0 
4.57547 3.94866 0.0 
4.729 3.98381 0.0 
4.00427 4.04292 0.0 
4.19027 3.96575 0.0 
4.97706 4.00588 0.0 
8.82055 3.84397 0.0 
4.99643 3.98691 0.0 
3.99047 3.98781 0.0 
4.67592 4.04653 0.0 
4.50259 4.09981 0.0 
4.01205 4.01791 0.0 
4.04839 4.01492 0.0 
4.34627 3.98181 0.0 
4.37694 4.12818 0.0 
4.3645 4.08813 0.0 
4.00671 4.06674 0.0 
4.98996 3.97879 0.0 
4.21208 4.09607 0.0 
4.37554 4.04551 0.0 
4.10704 4.04463 0.0 
4.27252 3.94427 0.0 
4.0058 3.89174 0.0 
4.13827 4.08787 0.0 
3.08171 2.09887 0.0 
4.36816 3.97057 0.0 
4.54908 4.06238 0.0 
4.1401 3.98497 0.0 
4.10988 3.95698 0.0 
4.68197 3.93546 0.0 
4.9251 4.01623 0.0 
4.04131 3.99766 0.0 
4.3068 3.95397 0.0 
4.25593 4.11374 0.0 
5.03609 3.98885 0.0 
0.712024 5.21358 0.0 
3.9756 4.08504 0.0 
4.037 4.008 0.0 
4.06005 3.96532 0.0 
11.6581 4.05495 0.0 
4.68727 4.06714 0.0 
4.04847 4.04817 0.0 
4.01118 3.98048 0.0 
4.31796 4.07549 0.0 
4.23974 4.07156 0.0 
4.57803 4.0043 0.0 
4.35589 4.03772 0.0 
3.9514 4.04615 0.0 
4.3037 3.98714 0.0 
4.03373 4.01881 0.0 
3.69689 3.78363 0.0 
4.6837 3.87491 0.0 
4.28157 4.0695 0.0 
4.0241 4.0517 0.0 
4.03402 4.05512 0.0 
4.01068 3.99745 0.0 
4.02872 3.99494 0.0 
4.80207 3.96621 0.0 
4.40413 4.05425 0.0 
4.78206 3.98335 0.0 
4.39652 3.99081 0.0 
5.02756 3.99082 0.0 
4.49023 4.08399 0.0 
3.99592 4.02432 0.0 
4.20305 3.95065 0.0 
4.31822 3.96754 0.0 
3.98656 4.03721 0.0 
3.93483 4.02645 0.0 
4.07021 3.95517 0.0 
4.17783 3.97887 0.0 
4.21759 3.91949 0.0 
4.82961 4.02073 0.0 
4.67865 4.05962 0.0 
4.68416 4.05975 0.0 
4.35621 4.08067 0.0 
4.145 4.08513 0.0 
4.46914 3.97136 0.0 
4.06247 4.08303 0.0 
9.49222 3.59452 0.0 
4.45096 3.96625 0.0 
4.49839 3.9747 0.0 
4.00518 3.97325 0.0 
5.01982 4.03188 0.0 
4.07895 4.07661 0.0 
4.52599 3.97566 0.0 
4.24958 3.96255 0.0 
[...]
<PointData>
  <DataArray type = "Float64" Name="Vitesse" NumberOfComponents="3" format="ascii">
1 0 0.0 
0.999266 0 0.0 
1.00085 0 0.0 
1 0 0.0 
0.323627 0.0149638 0.0 
1.07841 -0.078956 0.0 
0.178939 -0.0113599 0.0 
0.0197422 0.00126338 0.0 
0.95068 -0.312788 0.0 
0.13969 -0.0122377 0.0 
0 0 0.0 
0.231974 -0.0184495 0.0 
0.033951 -0.00504036 0.0 
0.00824655 0.000280221 0.0 
0.960412 -0.0120524 0.0 
0.138222 0.0158963 0.0 
0.000160436 -3.8308e-07 0.0 
0.0169227 -0.000961579 0.0 
0.149759 -0.0131743 0.0 
0.0544323 -0.0072352 0.0 
1.01072 0 0.0 
0.110862 -0.0113877 0.0 
0.205205 -0.00246189 0.0 
1.79992e-47 1.38634e-48 0.0 
0.883798 -0.148883 0.0 
0.971089 0.104917 0.0 
0.894537 -0.0220984 0.0 
0.697038 -0.00186626 0.0 
0.00577439 -0.000926693 0.0 
0 0 0.0 
0.239779 0.00334777 0.0 
0.00927861 -0.000968751 0.0 
0.518159 -0.0144072 0.0 
0.229147 -0.00551442 0.0 
0.95503 0.0913965 0.0 
0.0173157 -0.000535924 0.0 
-6.42551e-269 1.47576e-270 0.0 
0.103593 0.00512933 0.0 
0.0124458 0.00095377 0.0 
0.821543 0.208625 0.0 
0.0771497 0.00508124 0.0 
0.173819 -0.00285329 0.0 
0.990372 -0.000840134 0.0 
0.728179 -0.0436147 0.0 
0 0 0.0 
0.0151919 2.70969e-05 0.0 
0.322163 0.0109725 0.0 
0 0 0.0 
0.110295 -0.00685822 0.0 
0.945186 0.307084 0.0 
0 0 0.0 
0.207432 -0.0219297 0.0 
0 0 0.0 
0.00166316 -0.000200583 0.0 
0.186307 -0.0147439 0.0 
0.838483 0.204642 0.0 
0.139307 0.0125439 0.0 
1.02218 -0.221771 0.0 
0.936375 0.241398 0.0 
0 0 0.0 
0.238318 0.0249978 0.0 
0.118926 -0.0103318 0.0 
1.01471 0.000238937 0.0 
0.0484739 -0.0034019 0.0 
0.301367 0.0894429 0.0 
2.1304e-278 -2.62286e-279 0.0 
0 0 0.0 
0 0 0.0 
0.0619075 -0.00772112 0.0 
0.00742222 0.00063333 0.0 
0 0 0.0 
0.389445 0.20789 0.0 
0.187653 0.0143076 0.0 
0.051886 -0.00223083 0.0 
0 0 0.0 
0.0489281 -0.00668246 0.0 
0.281338 -0.0113732 0.0 
0 0 0.0 
0.0546082 -0.0089931 0.0 
0.0465196 -0.00793815 0.0 
0.0285385 -0.00201762 0.0 
1.00231 0.0331501 0.0 
0.0780465 -0.0189416 0.0 
0.223357 0.0246821 0.0 
0 0 0.0 
0.563626 0.137106 0.0 
1.01936 -2.82212e-05 0.0 
0.521892 -0.457231 0.0 
1.01182 -0.00478729 0.0 
1.04319 -0.0704945 0.0 
0.0793391 0.00141087 0.0 
0.0256376 -0.00397824 0.0 
5.68491e-52 8.51093e-53 0.0 
0.97585 0.0195941 0.0 
1 0 0.0 
0.994862 0.028077 0.0 
1.81482e-259 9.82446e-260 0.0 
0.828595 -0.192769 0.0 
0.100079 -0.0013311 0.0 
0.769118 0.0160862 0.0 
1.0149 -0.00386367 0.0 
0.947241 0.0462283 0.0 
0.0875634 -0.0012808 0.0 
0 0 0.0 
1.01832 0.011412 0.0 
0.822799 0.157361 0.0 
1.78744e-59 -1.26846e-60 0.0 
0.834354 0.344063 0.0 
1.07814 0.109085 0.0 
0 0 0.0 
0.650719 0.0939538 0.0 
0.635666 -0.0518169 0.0 
0.0966107 -0.0158759 0.0 
0.584219 -0.0382526 0.0 
0.163583 0.00681903 0.0 
0.144053 -0.0139995 0.0 
1 0 0.0 
0.853087 0.227771 0.0 
0.00563734 0.000397472 0.0 
0.487509 -0.00210144 0.0 
0 0 0.0 
1.01152 0.0277821 0.0 
0 0 0.0 
1e-307 0 0.0 
0.214708 0.00724682 0.0 
0.309467 0.00250587 0.0 
0.225509 -0.0189336 0.0 
0.189732 -0.0179888 0.0 
0.033252 -0.012819 0.0 
0.0157035 0.000441928 0.0 
0.145758 0.00620266 0.0 
0.526644 -0.0145905 0.0 
0.117939 -0.0119506 0.0 
0.0973077 -0.0020422 0.0 
0.351135 0.0290317 0.0 
0.703391 0.145429 0.0 
1.0052 -0.0882687 0.0 
0.851989 0.111322 0.0 
0.109174 0.0191347 0.0 
0.0593124 0.0236831 0.0 
-1.28758e-285 -9.99792e-286 0.0 
0.801103 0.278365 0.0 
0 0 0.0 
0.404567 -0.0196888 0.0 
0.0153326 -0.00388996 0.0 
0.810896 0.19561 0.0 
0.0390469 0.00207963 0.0 
0.204547 0.0174003 0.0 
1.72037e-239 -3.07546e-240 0.0 
0.687194 0.232217 0.0 
0.735724 0.131481 0.0 
0.115551 -0.0059526 0.0 
-8.85608e-192 -2.78392e-193 0.0 
1.02033 -0.117116 0.0 
0.125753 -0.0146876 0.0 
0.0168661 0.00103918 0.0 
0.953681 -0.246671 0.0 
1.00831 -0.000691524 0.0 
0.0876159 -0.00941675 0.0 
0.0446828 -0.0018649 0.0 
1.00621 -0.0145873 0.0 
0 0 0.0 
0.0556487 -0.00719817 0.0 
0.368346 -0.00436217 0.0 
0.134732 0.00649778 0.0 
0 0 0.0 
0.0573472 0.00347963 0.0 
0.0865097 -0.0154602 0.0 
0.000110133 1.1649e-05 0.0 
0.1266 -0.0181981 0.0 
0.12423 0.0106636 0.0 
0.0204876 0.000851241 0.0 
5.54413e-63 3.04599e-63 0.0 
0.0667124 -0.0129689 0.0 
0.999713 -0.00242129 0.0 
0.600654 0.280647 0.0 
0.0724276 -0.0186677 0.0 
0.705425 0.0878329 0.0 
0.206417 -0.0266722 0.0 
0 0 0.0 
0.06539 0.00925141 0.0 
-1.15301e-138 -5.92116e-140 0.0 
1.3556e-69 -1.09786e-70 0.0 
0.944709 0.13913 0.0 
0.0771475 -0.00906789 0.0 
0.167911 0.0218486 0.0 
0.0761897 -0.0132434 0.0 
0 0 0.0 
0.0572083 0.00193777 0.0 
0 0 0.0 
1.00491 -0.0161229 0.0 
0.258892 -0.0183746 0.0 
0 0 0.0 
0.00185918 0.000115296 0.0 
0 0 0.0 
0.133557 -0.0199302 0.0 
0.08352 -0.00812677 0.0 
0.84167 -0.0294226 0.0 
0 0 0.0 
0.380051 0.0201575 0.0 
0.0268389 -0.0013501 0.0 
0 0 0.0 
0 0 0.0 
0.730224 0.270746 0.0 
0.953785 -0.0380388 0.0 
1.11948 0.106746 0.0 
1.01223 0.0138921 0.0 
0.185347 0.014889 0.0 
8.69222e-117 -1.11473e-117 0.0 
0.150973 0.015859 0.0 
0 0 0.0 
0.728457 0.201486 0.0 
0.478198 -0.0150076 0.0 
0.684734 0.000281644 0.0 
0.361031 0.0465863 0.0 
0.173222 0.0108716 0.0 
0.292249 -0.0187447 0.0 
0.059531 -0.00168676 0.0 
0.124723 -0.00633583 0.0 
0.0208822 0.000432323 0.0 
0.0785008 -0.0123185 0.0 
0.948212 -0.147429 0.0 
0.146831 -0.0140927 0.0 
0.565886 0.0402381 0.0 
0.72108 -0.0451301 0.0 
0.222577 -0.00655805 0.0 
-1.77221e-270 -2.62053e-271 0.0 
0.111267 0.00562486 0.0 
0.0275578 -0.00156157 0.0 
0.218413 0.0138387 0.0 
0.0587039 -0.00703333 0.0 
0.0210927 -0.00143908 0.0 
0.967948 -0.00299011 0.0 
-7.60192e-191 -6.93387e-192 0.0 
0.00653957 -0.0012131 0.0 
0 0 0.0 
0.000339614 2.43734e-05 0.0 
0.0532453 0.00264319 0.0 
0.908128 0.0344239 0.0 
0.754822 -0.361281 0.0 
0.447612 -0.0105068 0.0 
1.02105 0.000779853 0.0 
0.0667184 -0.0324286 0.0 
0.104235 -0.00747118 0.0 
0.0289522 -0.0058589 0.0 
0.14384 -0.0152257 0.0 
0.0754177 -0.055406 0.0 
0.00728222 -0.00320528 0.0 
0.226347 -0.0170688 0.0 
0.335734 0.00702828 0.0 
0.912101 0.150981 0.0 
0.899358 0.333839 0.0 
0 0 0.0 
0.199069 0.0235652 0.0 
0 0 0.0 
0 0 0.0 
0.103257 0.00311187 0.0 
0.609895 -0.309811 0.0 
0.83972 0.0195191 0.0 
0.0731099 0.0032916 0.0 
0.0280048 0.000830074 0.0 
0.024204 0.0018443 0.0 
0.0713825 -0.00872751 0.0 
0.527748 0.0296666 0.0 
0.0316317 -0.00235707 0.0 
0.000243701 1.75964e-05 0.0 
1.05037 -0.0226926 0.0 
0.107573 0.00373672 0.0 
0.233533 0.048114 0.0 
0.298785 0.0567574 0.0 
0.81372 0.363586 0.0 
0.163737 0.00700485 0.0 
0.0578189 0.00320411 0.0 
0.996729 -0.0109869 0.0 
0.0100217 -0.00151008 0.0 
0.415098 0.0251694 0.0 
0.404898 0.0303878 0.0 
0.326105 -0.00956549 0.0 
0.350963 -0.103499 0.0 
1.0608 0.120741 0.0 
0.136194 -0.0179665 0.0 
0.0237081 0.000932971 0.0 
0.989732 -0.00454856 0.0 
0.281114 0.00867027 0.0 
0.086358 -0.00486193 0.0 
-3.65114e-206 1.99372e-206 0.0 
0.590134 0.0496145 0.0 
0.0256453 -0.00124764 0.0 
0.863673 0.00956772 0.0 
0.778952 0.336871 0.0 
0.989059 -0.0352503 0.0 
1.01008 -0.000950303 0.0 
1.00271 0 0.0 
0.571816 0.171793 0.0 
0 0 0.0 
0.711656 0.225901 0.0 
0.194145 0.0085481 0.0 
0 0 0.0 
0.755584 -0.0278277 0.0 
0.919649 0.321698 0.0 
0.284363 -0.0200777 0.0 
0.014998 0.00104237 0.0 
0.082354 0.00197579 0.0 
0.495486 0.00925111 0.0 
0.932399 0.10439 0.0 
0.489779 0.000544701 0.0 
0.427952 0.0484802 0.0 
0.0159284 -0.00151354 0.0 
1.08327 0.16504 0.0 
0.0752548 -0.00821166 0.0 
0 0 0.0 
0.000186964 4.64568e-06 0.0 
0.345741 0.000612334 0.0 
0 0 0.0 
0.404708 0.0287298 0.0 
0.895611 -0.062317 0.0 
1.01053 0.00129793 0.0 
0.186165 -0.137863 0.0 
0.516453 0.170882 0.0 
0.54227 0.0383945 0.0 
0.985109 0.287893 0.0 
0.0525269 -0.0126564 0.0 
0.472926 -0.442174 0.0 
0.763958 -0.434965 0.0 
2.86065e-239 1.02161e-240 0.0 
0.000239138 3.03353e-06 0.0 
0.130438 -0.0084356 0.0 
0.0335615 -0.00162071 0.0 
0 0 0.0 
0.0137545 0.00103125 0.0 
0 0 0.0 
0.143415 -0.00155812 0.0 
0 0 0.0 
7.75854e-256 -4.24071e-256 0.0 
0 0 0.0 
0 0 0.0 
0.745265 0.351846 0.0 
1.00973 -0.00127614 0.0 
0 0 0.0 
0.864203 0.135778 0.0 
0.90403 0.00451676 0.0 
0.232205 0.0242545 0.0 
0.182049 0.0194114 0.0 
0.117709 -0.0108653 0.0 
0.580821 -0.0110096 0.0 
0.0139105 -0.00155567 0.0 
0.141324 -0.00615097 0.0 
0.877259 -0.227537 0.0 
0 0 0.0 
0.608246 -0.190322 0.0 
0.847235 -0.369342 0.0 
0.0530361 -0.00661901 0.0 
0 0 0.0 
1.05439 -0.175875 0.0 
0.244927 -0.00528737 0.0 
1.00864 0.000780139 0.0 
0 0 0.0 
0 0 0.0 
-1.99214e-188 -6.26138e-190 0.0 
1.01273 -0.0201965 0.0 
0.151295 -0.0125281 0.0 
0.610011 0.319441 0.0 
1.00706 -0.000433118 0.0 
1.00623 0.00408676 0.0 
1.01398 -0.00253723 0.0 
0.854797 -0.0931673 0.0 
0.375999 -0.0210614 0.0 
0.329621 0.0283063 0.0 
0.909846 -0.0190887 0.0 
0.0267813 -0.00227747 0.0 
0.673191 0.290776 0.0 
0 0 0.0 
0 0 0.0 
-1.11835e-273 -7.17328e-275 0.0 
0.0588427 -0.00996726 0.0 
0.22896 0.00654882 0.0 
0.670588 -0.0418177 0.0 
0 0 0.0 
0 0 0.0 
0 0 0.0 
0.444726 0.0255948 0.0 
0.839305 -0.000883725 0.0 
0.253626 0.122783 0.0 
0.359954 -0.0199506 0.0 
0 0 0.0 
0.661202 0.37012 0.0 
0.882068 0.0149411 0.0 
0.240427 0.0070153 0.0 
0.373056 0.0106332 0.0 
0.0240213 0.0013232 0.0 
0.739651 0.326006 0.0 
0.0458081 -0.00161802 0.0 
0.00194879 -0.000367627 0.0 
0.807637 -0.0565253 0.0 
0.118052 0.0129633 0.0 
0.542343 -0.34661 0.0 
1.91477e-52 -6.33501e-54 0.0 
0.576991 -0.0120295 0.0 
0.0697907 0.0428657 0.0 
0 0 0.0 
0 0 0.0 
1.02936 0.0448545 0.0 
0.421552 0.00663861 0.0 
0.839301 0.269204 0.0 
0.187814 0.0140268 0.0 
0.906696 0.114048 0.0 
0 0 0.0 
-6.8756e-285 -2.24745e-285 0.0 
0.487825 -0.0066432 0.0 
0.973305 -0.180037 0.0 
0.990241 0.197233 0.0 
1.00287 -0.00641139 0.0 
0.00828896 0.000813447 0.0 
0.030834 -0.00262737 0.0 
0 0 0.0 
0.491645 -0.0485147 0.0 
0.548783 0.0143926 0.0 
0.00635373 -0.00112254 0.0 
0 0 0.0 
0.275148 0.0022877 0.0 
1.03477 0.105784 0.0 
0.128668 0.0171668 0.0 
0.999906 0.000967291 0.0 
0.847648 0.174182 0.0 
0 0 0.0 
0.512524 -0.0966838 0.0 
0.998696 -0.00934599 0.0 
0.187331 -0.0155446 0.0 
0.72186 0.259929 0.0 
0.591576 -0.320665 0.0 
0.169353 0.00433422 0.0 
0.188538 0.0156839 0.0 
0 0 0.0 
0 0 0.0 
0.770551 0.0981706 0.0 
0 0 0.0 
0 0 0.0 
0.961608 -0.0331472 0.0 
1.0142 0.00731819 0.0 
0.0522812 0.00279197 0.0 
0.848502 0.352773 0.0 
0.883339 0.344493 0.0 
0 0 0.0 
0 0 0.0 
0.232552 0.0100348 0.0 
0 0 0.0 
0.0511724 0.00256502 0.0 
0 0 0.0 
0.10852 0.0159094 0.0 
0.31205 -0.0100281 0.0 
0.547789 0.294629 0.0 
0.422015 -0.0136469 0.0 
0.0322773 0.0012232 0.0 
0.676421 0.220348 0.0 
0.77305 0.0319332 0.0 
0.81301 -0.15109 0.0 
0 0 0.0 
0.985064 -0.0614078 0.0 
-1.71548e-188 1.0975e-189 0.0 
0.103605 -0.00920885 0.0 
0.108984 -0.0100018 0.0 
0.263666 0.00214484 0.0 
0.934493 0.178052 0.0 
0.0397196 0.00118148 0.0 
0.990163 0.283996 0.0 
1.05454 0.0639233 0.0 
0.100647 0.00415371 0.0 
0.0107955 0.000858716 0.0 
0.818281 -0.43716 0.0 
0.116473 -0.0227029 0.0 
0.996286 0.277744 0.0 
0.0135276 0.00170384 0.0 
0.111757 0.000282787 0.0 
0.364778 0.00596858 0.0 
0.266037 -0.00886324 0.0 
0.0511359 -0.00545137 0.0 
0.00393088 -0.000690809 0.0 
0.601108 -0.166457 0.0 
1.01251 -0.00423038 0.0 
0.972092 -0.0471853 0.0 
0.338375 0.0666724 0.0 
0.744659 0.147912 0.0 
0.481221 -0.0421938 0.0 
0 0 0.0 
0.000242348 1.82229e-05 0.0 
1.09885 0.0154135 0.0 
0.900431 -0.0498265 0.0 
0.607124 0.0057579 0.0 
0.492687 -0.0804569 0.0 
0.764677 0.278039 0.0 
0.812696 0.323828 0.0 
0.709351 0.251557 0.0 
0.0859788 0.00410727 0.0 
0 0 0.0 
0.00622727 -0.000948374 0.0 
0 0 0.0 
0.808759 -0.0457837 0.0 
0.998967 -0.00022254 0.0 
0 0 0.0 
0 0 0.0 
0.747577 0.222982 0.0 
1.03584 -0.0242754 0.0 
0.0713806 0.00365921 0.0 
0 0 0.0 
0.679461 0.146152 0.0 
0.0156752 0.00148376 0.0 
1.04787 0.229711 0.0 
0.341942 0.0162845 0.0 
0.00164862 4.94042e-05 0.0 
0.102844 0.00405634 0.0 
0.707998 0.174726 0.0 
0.303989 0.0038113 0.0 
0.201941 -0.0193618 0.0 
0.463872 -0.439953 0.0 
0 0 0.0 
1.04542 0.00521062 0.0 
0 0 0.0 
0.923896 -0.199647 0.0 
1 0 0.0 
0.848067 0.314843 0.0 
0.973344 -0.177332 0.0 
0.189173 0.00770782 0.0 
0.0124293 -0.00158698 0.0 
0.572039 0.049238 0.0 
0.000186065 -3.75067e-05 0.0 
1.11929 0.122813 0.0 
0.536514 -0.00960448 0.0 
0.764948 -0.331125 0.0 
1.07057 -0.226161 0.0 
0.810028 -0.323546 0.0 
0.647852 0.0727401 0.0 
0.835357 -0.366857 0.0 
5.31311e-05 -7.0016e-06 0.0 
0.0201819 -0.0436019 0.0 
-1.87279e-148 -4.23376e-149 0.0 
0.0189248 0.000454914 0.0 
0.98313 0.0951084 0.0 
0.88383 -0.391329 0.0 
0.0843021 0.0312893 0.0 
0 0 0.0 
0 0 0.0 
0.906059 0.210627 0.0 
0.67381 0.0686884 0.0 
0 0 0.0 
0.90508 0.0954776 0.0 
0.660007 -0.00670295 0.0 
0.874443 -0.401844 0.0 
5.49503e-256 2.97471e-256 0.0 
0.0366301 0.00539634 0.0 
0.634311 -0.101996 0.0 
0.740689 0.0584049 0.0 
0.586604 0.013331 0.0 
0 0 0.0 
0 0 0.0 
1.00184 0 0.0 
0.9918 -0.312566 0.0 
0.121118 -0.0104074 0.0 
0.316431 0.0112122 0.0 
0.405191 0.207169 0.0 
0.114231 0.00203537 0.0 
0 0 0.0 
0.797503 0.110421 0.0 
0 0 0.0 
0.475076 -0.0779419 0.0 
0 0 0.0 
0.000205238 -8.35854e-06 0.0 
1.01703 -0.00108008 0.0 
0.194278 -0.00109083 0.0 
0 0 0.0 
0 0 0.0 
0 0 0.0 
0 0 0.0 
0.274075 0.00903119 0.0 
0.116374 0.0334513 0.0 
1.00841 -0.000402348 0.0 
0 0 0.0 
0.764126 0.0800283 0.0 
0.929636 -0.00239171 0.0 
0.00472176 -0.000911064 0.0 
0.679277 -0.0773973 0.0 
1.01617 0.191825 0.0 
0.932974 0.00242335 0.0 
1.00421 -0.0483235 0.0 
0.00544372 0.00104452 0.0 
0 0 0.0 
0.959817 0.0440513 0.0 
-6.11128e-274 5.37939e-275 0.0 
0 0 0.0 
0.718791 0.125174 0.0 
4.53032e-64 2.48899e-64 0.0 
0.872434 0.335582 0.0 
0.49677 0.136331 0.0 
0.773267 0.121381 0.0 
0 0 0.0 
0.130019 0.00287945 0.0 
0.00568845 -0.000536112 0.0 
8.93328e-05 8.82991e-06 0.0 
0.936932 0.290409 0.0 
0.105327 -0.00484521 0.0 
0.0113312 0.00099145 0.0 
0.742587 0.108136 0.0 
0.911949 0.329212 0.0 
0 0 0.0 
0.884156 0.321275 0.0 
0.0336365 0.000580634 0.0 
0.934417 0.128502 0.0 
0.886988 -0.00843207 0.0 
0.99319 -0.323684 0.0 
0.874737 0.3458 0.0 
0.1092 -0.0113455 0.0 
0 0 0.0 
0.780001 0.00179655 0.0 
0.456956 -0.294904 0.0 
-3.58709e-212 -1.63813e-212 0.0 
0.0506641 0.00210002 0.0 
0.996236 0.00477226 0.0 
1.00169 0 0.0 
0.346092 0.00592542 0.0 
0.126989 0.00420947 0.0 
0.00222256 -8.00876e-05 0.0 
0.816348 0.0257048 0.0 
0.639827 0.0531199 0.0 
0.679834 0.0612338 0.0 
0.661219 -0.0545145 0.0 
0.138105 -0.0137473 0.0 
0 0 0.0 
0.885201 -0.224188 0.0 
0.525 0.00499204 0.0 
0.442135 -0.0360349 0.0 
0.841918 0.0781238 0.0 
1.00137 0.00298064 0.0 
0.0711164 0.011324 0.0 
0.181009 0.00291536 0.0 
0.0716513 0.00338973 0.0 
0.0457881 -0.00474458 0.0 
0.0640102 -0.00776034 0.0 
0.817646 -0.145672 0.0 
0.813591 -0.0934115 0.0 
0.106967 0.00481716 0.0 
1.05785 0.151382 0.0 
0.0215448 -0.00144871 0.0 
0.019998 0.00146046 0.0 
0.0259323 0.00147166 0.0 
0.00261637 -0.000434772 0.0 
1.0011 0 0.0 
0 0 0.0 
0.352971 -0.00935993 0.0 
0.0160889 -0.00240073 0.0 
7.07448e-53 5.56178e-54 0.0 
0.0399132 0.000472797 0.0 
1.01159 -0.0735994 0.0 
0.817235 -0.0193763 0.0 
0.387451 0.0349605 0.0 
0.950782 -0.225592 0.0 
0.241002 0.00999986 0.0 
0.622392 0.195424 0.0 
0.583889 0.299528 0.0 
0.984352 -0.0473174 0.0 
0.00367415 -0.000489632 0.0 
0.139802 0.00486781 0.0 
0.344137 0.0614425 0.0 
1.00101 0.0031891 0.0 
0.59537 0.339504 0.0 
0 0 0.0 
0 0 0.0 
0.262686 0.0147385 0.0 
0 0 0.0 
0.141543 0.00263608 0.0 
0.668204 -0.126386 0.0 
1.00237 -0.000860544 0.0 
1.01388 4.84022e-05 0.0 
1.01619 0.273544 0.0 
0.845628 0.337988 0.0 
0.0954684 -0.00853587 0.0 
0.180008 -0.00678681 0.0 
0 0 0.0 
0.505446 0.0725299 0.0 
1.01489 0.00280516 0.0 
0.0117338 0.00081152 0.0 
1.03339 0.136764 0.0 
0 0 0.0 
0 0 0.0 
0.975964 -0.129328 0.0 
0 0 0.0 
0.654634 0.0236765 0.0 
0.000424354 -2.42694e-06 0.0 
0.900378 0.336427 0.0 
0.885691 -0.0506349 0.0 
0 0 0.0 
0.245346 0.00648442 0.0 
0.324204 0.0895839 0.0 
0.0206933 0.000853539 0.0 
0.0125746 -0.000835658 0.0 
1.04262 -0.238719 0.0 
0 0 0.0 
1.00307 -0.000420346 0.0 
0.348874 0.0112867 0.0 
0.613891 0.0160891 0.0 
0.81899 0.300672 0.0 
0.668698 0.0195041 0.0 
0.30232 0.0124371 0.0 
0.628937 0.116188 0.0 
0.526477 -0.00229175 0.0 
0 0 0.0 
0.528901 0.0183928 0.0 
0.807562 -0.0731879 0.0 
0.158485 0.00543375 0.0 
0.266891 0.00262339 0.0 
0 0 0.0 
0.000401911 5.9901e-05 0.0 
1.08288 0.2043 0.0 
0.0126992 0.00010021 0.0 
0.757451 -0.100313 0.0 
0.275845 0.0215522 0.0 
0 0 0.0 
0.379415 -0.0040065 0.0 
0.174635 0.00578432 0.0 
1.00576 0 0.0 
1.05853 0.000517915 0.0 
0.993156 0.0590602 0.0 
0 0 0.0 
0.0255134 0.00279497 0.0 
-3.06271e-184 5.16057e-186 0.0 
0.261269 0.0228836 0.0 
1.06287 -0.0519566 0.0 
1.02444 -0.219964 0.0 
0.634293 0.0766334 0.0 
0.792689 0.211489 0.0 
0.47182 -0.00104252 0.0 
0.220679 -0.005995 0.0 
0 0 0.0 
0.570313 -0.000943044 0.0 
0.0204623 0.000192706 0.0 
1.00449 0.266772 0.0 
1.07401 0.143914 0.0 
0.959331 0.287083 0.0 
0.587451 -0.12384 0.0 
0.834981 0.25843 0.0 
0 0 0.0 
0.00177511 0.000162841 0.0 
1.02128 -0.147471 0.0 
0.663754 -0.0653481 0.0 
0.868518 -0.189044 0.0 
1.01317 0.254954 0.0 
0.0219542 0.00176134 0.0 
0.253447 0.030755 0.0 
0.461792 -0.0327018 0.0 
0 0 0.0 
0.827778 -0.0477208 0.0 
0.555436 -0.0986646 0.0 
1.05503 -0.018728 0.0 
1.03573 0.0508745 0.0 
0.231978 0.00597137 0.0 
0.704542 -0.0589283 0.0 
0.301748 0.0117812 0.0 
0.241513 -0.00150532 0.0 
0.537113 -0.0504289 0.0 
1 0 0.0 
0.0810246 0.00843356 0.0 
0.78676 0.261366 0.0 
-3.69711e-186 4.39751e-187 0.0 
0.949004 -0.014794 0.0 
0.44555 -0.00721676 0.0 
0.30353 -0.0092337 0.0 
0.00820783 -0.00141046 0.0 
0 0 0.0 
0.922154 0.255888 0.0 
0.575417 0.0111125 0.0 
0 0 0.0 
0.717368 -0.0757605 0.0 
1.01392 -0.00197853 0.0 
1.0068 0 0.0 
0.0110856 0.000616692 0.0 
0 0 0.0 
1.07841 -0.00160325 0.0 
0 0 0.0 
0 0 0.0 
1.00961 0 0.0 
0.0711617 0.00802229 0.0 
0.959351 0.0805125 0.0 
0 0 0.0 
2.11655e-05 -1.78416e-06 0.0 
0.0129481 -0.00138404 0.0 
8.2994e-05 1.2199e-05 0.0 
0.271625 -0.00428486 0.0 
0.00731571 -5.03013e-05 0.0 
0.290711 0.0925287 0.0 
0.620101 0.0413651 0.0 
0 0 0.0 
0.653466 -0.0181971 0.0 
0.384215 0.0452883 0.0 
0 0 0.0 
-7.6429e-194 -6.97124e-195 0.0 
0.0275603 0.00137203 0.0 
0.33352 0.0106738 0.0 
0.099631 0.0054869 0.0 
0.36388 0.0033758 0.0 
0 0 0.0 
0.104886 0.0055344 0.0 
0.178869 0.0101341 0.0 
0.970017 0.163455 0.0 
0.264249 0.0242041 0.0 
0.258918 0.021786 0.0 
0.0227933 -0.000322525 0.0 
0.441214 0.00242451 0.0 
0.0191735 0.0018765 0.0 
0.831348 -0.0401669 0.0 
0 0 0.0 
0.0314819 -0.00260887 0.0 
0.89776 0.187076 0.0 
0.258262 0.00464762 0.0 
1.10604 0.14197 0.0 
0.0298072 -0.00240051 0.0 
0.00099871 8.18767e-05 0.0 
0.791323 0.167647 0.0 
0.0506108 -0.00101665 0.0 
0.0689745 -0.00812437 0.0 
0.399768 0.176972 0.0 
0.377008 -0.0304925 0.0 
0.539958 -0.0110178 0.0 
0.0111939 0.00079352 0.0 
0 0 0.0 
0.955178 -0.204862 0.0 
4.18835e-94 9.39344e-96 0.0 
0.930547 0.0954848 0.0 
0.813416 -0.027336 0.0 
0.496892 -0.0399566 0.0 
0.890757 -0.208017 0.0 
0.00466276 -0.00131939 0.0 
0 0 0.0 
0.968696 -0.0481272 0.0 
0 0 0.0 
0.000654322 -5.17034e-05 0.0 
0.00170244 -0.00033457 0.0 
0 0 0.0 
0.300017 0.0168459 0.0 
0.358255 0.0123066 0.0 
1.06826 -0.146861 0.0 
0.871478 0.0117973 0.0 
0.246185 0.0688308 0.0 
0.0375806 -0.00198023 0.0 
0.0165475 0.000818981 0.0 
0.626391 0.357835 0.0 
1.07564 0.0502731 0.0 
-4.33369e-143 -1.6428e-144 0.0 
1.00038 -0.240024 0.0 
0.0358267 -0.00269896 0.0 
0 0 0.0 
0.999054 -0.000245682 0.0 
0.00116794 0.000103351 0.0 
0.901726 0.10625 0.0 
0.999629 -0.000271632 0.0 
1.06514 -0.0351651 0.0 
0.423878 -0.0154295 0.0 
0 0 0.0 
0.630391 0.215203 0.0 
0.863303 -0.136764 0.0 
1 0 0.0 
0.3339 -0.0117242 0.0 
0 0 0.0 
0 0 0.0 
0.755064 0.09294 0.0 
1.06473 -0.0374885 0.0 
0.346892 -0.0113802 0.0 
0 0 0.0 
0.00752871 -0.000346847 0.0 
1.08763 -0.0609319 0.0 
0.00220157 -0.000466902 0.0 
0.815595 -0.0938838 0.0 
0 0 0.0 
0 0 0.0 
0 0 0.0 
0 0 0.0 
0.167153 0.00436211 0.0 
0.852156 0.0370376 0.0 
0.0138849 -0.0014652 0.0 
1.89654e-05 -2.95962e-06 0.0 
0.0514422 0.00251085 0.0 
0.996823 0.0216769 0.0 
0 0 0.0 
0.996391 0.00529051 0.0 
0.999771 0.00324521 0.0 
0.515994 -0.0243067 0.0 
0.737242 0.00458159 0.0 
0.39909 0.021658 0.0 
-2.61546e-291 1.43118e-291 0.0 
0.427787 -0.00192339 0.0 
0.155467 0.00808903 0.0 