<VTKFile type="UnstructuredGrid" version="0.1" byte_order="LittleEndian">
  <UnstructuredGrid>
    <Piece NumberOfPoints="13585" NumberOfCells="27013">
      <Points>
        <DataArray type = "Float64" NumberOfComponents="3" format="ascii">
0 0 0.0 
14 0 0.0 
14 8 0.0 
0 8 0.0 
4.71101 4.04481 0.0 
4.00429 4.01157 0.0 
5.15553 4.02606 0.0 
9.17034 3.88085 0.0 
4.01347 3.94819 0.0 
3.99315 4.06288 0.0 
4.80963 3.98905 0.0 
4.18401 3.96674 0.0 
4.1431 4.11484 0.0 
5.8622 0.652372 0.0 
4.35688 3.96972 0.0 
4.44461 4.07999 0.0 
4.18927 3.93921 0.0 
4.25667 4.09902 0.0 
8.40909 0 0.0 
4.79858 4.05061 0.0 
4.48822 4.12583 0.0 
4.95695 3.98507 0.0 
4.27251 3.94421 0.0 
4.38492 3.9694 0.0 
4.06288 4.03688 0.0 
13.1709 3.26764 0.0 
4.08147 3.99499 0.0 
4.10898 4.04008 0.0 
4.60147 3.97915 0.0 
4.15975 4.0464 0.0 
4.4096 4.07715 0.0 
8.62255 2.57923 0.0 
4.09422 4.06655 0.0 
4.00489 3.99798 0.0 
5.03122 4.01313 0.0 
4.43598 4.04149 0.0 
8.19605 2.71495 0.0 
7.80038 2.79646 0.0 
4.35741 4.03795 0.0 
4.05789 4.06544 0.0 
4.10075 4.03591 0.0 
4.81354 3.97664 0.0 
4.48295 4.0392 0.0 
4.14394 3.94805 0.0 
4.09973 4.06883 0.0 
4.98031 4.02036 0.0 
4.0631 3.94627 0.0 
4.09324 4.07263 0.0 
7.24824 3.94357 0.0 
5.01594 3.97412 0.0 
4.22735 3.91196 0.0 
4.92813 3.96896 0.0 
6.15555 4.02389 0.0 
4.06915 4.04534 0.0 
4.30493 4.07262 0.0 
4.08538 4.02507 0.0 
4.04456 4.02516 0.0 
5.03247 3.98293 0.0 
4.96872 4.01663 0.0 
3.99368 4.01426 0.0 
4.32045 3.95193 0.0 
4.70681 4.03284 0.0 
4.94587 4.02527 0.0 
4.48201 4.02774 0.0 
4.07895 4.07661 0.0 
4.31812 4.07534 0.0 
4.16288 3.96669 0.0 
4.4004 4.127 0.0 
5.00489 4.02516 0.0 
4.7187 4.0102 0.0 
4.22847 4.07708 0.0 
4.09424 4.05815 0.0 
3.99988 3.98708 0.0 
4.00671 4.06674 0.0 
4.27473 4.09602 0.0 
4.10876 4.07471 0.0 
3.99592 4.02432 0.0 
4.2242 4.06087 0.0 
5.41155 3.85481 0.0 
4.25593 4.11374 0.0 
4.08166 4.0494 0.0 
4.35684 4.08034 0.0 
4.01192 3.85935 0.0 
7.59514 2.94404 0.0 
4.8401 4.04123 0.0 
4.76396 4.03191 0.0 
4.08762 3.9702 0.0 
10.9698 4.1228 0.0 
4.17786 4.07881 0.0 
4.19273 3.95884 0.0 
5.04607 4.02448 0.0 
4.1628 3.94775 0.0 
4.39253 3.95195 0.0 
5.09798 4.0273 0.0 
4.21834 3.95004 0.0 
4.08831 4.06631 0.0 
8.71087 4.14104 0.0 
3.92236 4.04787 0.0 
4.4175 4.12976 0.0 
4.36566 4.10014 0.0 
3.99294 4.05083 0.0 
6.84465 2.87143 0.0 
4.33291 4.07121 0.0 
5.01116 4.01057 0.0 
4.32435 3.96924 0.0 
4.52284 4.09709 0.0 
4.36723 4.07607 0.0 
5.0786 4.01053 0.0 
3.97234 4.03785 0.0 
4.17204 3.92436 0.0 
4.73062 4.04246 0.0 
5.00576 3.98835 0.0 
4.20998 4.0635 0.0 
4.47564 3.99268 0.0 
4.98947 4.00894 0.0 
4.02242 4.02346 0.0 
4.28477 4.07284 0.0 
4.99603 3.97729 0.0 
4.80913 4.03237 0.0 
4.63705 4.04055 0.0 
11.7445 4.22598 0.0 
4.05664 3.81012 0.0 
4.95286 4.03879 0.0 
4.69515 3.98385 0.0 
4.0089 3.92893 0.0 
4.58771 3.98008 0.0 
3.08171 2.09887 0.0 
4.24915 4.05618 0.0 
4.02105 4.04639 0.0 
4.45682 3.99659 0.0 
4.43914 4.06688 0.0 
4.70317 3.96659 0.0 
4.54493 4.06147 0.0 
4.9912 4.02804 0.0 
4.16818 3.96701 0.0 
3.94967 4.05786 0.0 
5.07235 3.99531 0.0 
4.92012 4.0202 0.0 
4.43733 4.06869 0.0 
4.98997 4.02393 0.0 
4.31113 4.07839 0.0 
5.01943 4.02273 0.0 
3.96199 4.03038 0.0 
5.04864 4.04382 0.0 
4.1584 4.03851 0.0 
4.05619 4.041 0.0 
4.76156 4.05785 0.0 
4.18813 4.09432 0.0 
4.26517 3.92745 0.0 
5.03899 4.01992 0.0 
6.19721 4.00762 0.0 
4.48681 4.09719 0.0 
1.75542 5.41821 0.0 
4.51354 4.04012 0.0 
3.98742 4.01904 0.0 
5.05402 4.03163 0.0 
4.22501 4.06626 0.0 
4.02359 3.94782 0.0 
4.16902 3.98151 0.0 
4.2066 3.95073 0.0 
4.11763 4.04808 0.0 
4.38344 3.91312 0.0 
3.99745 3.98903 0.0 
4.41472 4.04958 0.0 
4.29577 3.96662 0.0 
4.0309 3.97177 0.0 
4.213 4.06906 0.0 
5.02127 3.99687 0.0 
5.0636 3.98872 0.0 
4.01229 4.05292 0.0 
4.72257 3.98415 0.0 
3.98273 4.00621 0.0 
4.28409 3.96731 0.0 
4.98107 3.97981 0.0 
4.67625 3.93577 0.0 
5.03571 4.00684 0.0 
4.35147 3.9358 0.0 
4.98218 4.02738 0.0 
4.76134 3.98889 0.0 
4.41357 3.96274 0.0 
4.27406 4.08825 0.0 
3.95046 4.00001 0.0 
4.12639 4.05926 0.0 
4.22383 4.06305 0.0 
4.96542 3.9915 0.0 
4.03015 3.95696 0.0 
5.15771 3.9871 0.0 
11.4371 2.11828 0.0 
4.04721 3.95909 0.0 
7.10688 3.81214 0.0 
4.35025 3.9619 0.0 
4.29669 4.06855 0.0 
4.03706 4.0309 0.0 
4.05895 4.11991 0.0 
8.92501 4.02764 0.0 
4.77244 4.04632 0.0 
4.13005 3.956 0.0 
4.37015 4.09224 0.0 
4.98463 4.01475 0.0 
4.88474 4.04745 0.0 
4.08447 4.04861 0.0 
5.00134 4.00081 0.0 
4.28512 4.05404 0.0 
4.57756 4.07254 0.0 
4.39312 3.97171 0.0 
5.01224 3.97834 0.0 
4.02873 4.02055 0.0 
5.02679 3.9978 0.0 
4.0538 3.95415 0.0 
4.0163 3.98258 0.0 
0.238681 7.10109 0.0 
4.43442 3.96057 0.0 
3.98674 3.91813 0.0 
10.7354 3.59712 0.0 
4.37694 4.12818 0.0 
4.52859 3.9758 0.0 
4.4024 3.88713 0.0 
4.32531 3.95741 0.0 
4.12784 3.96982 0.0 
4.72378 4.01483 0.0 
6.18245 4.21201 0.0 
3.97422 3.94364 0.0 
4.02949 3.97631 0.0 
5.42064 4.0275 0.0 
3.91494 4.13773 0.0 
4.28115 4.08293 0.0 
4.25325 4.08014 0.0 
4.46954 3.97459 0.0 
3.99624 4.02711 0.0 
4.98174 4.03773 0.0 
4.68907 4.06774 0.0 
11.3017 0 0.0 
5.56217 4.02861 0.0 
4.77175 4.03641 0.0 
4.34965 4.05444 0.0 
4.52875 4.0622 0.0 
5.86141 3.89 0.0 
4.0582 3.9448 0.0 
4.00975 4.04675 0.0 
4.35885 3.94853 0.0 
2.67239 0 0.0 
3.98298 4.00201 0.0 
6.06462 3.94858 0.0 
4.50728 4.04977 0.0 
4.25 4.04556 0.0 
4.79794 4.03455 0.0 
4.03695 4.06573 0.0 
4.33458 4.14748 0.0 
11.4194 7.77898 0.0 
4.23233 4.101 0.0 
4.26093 4.08097 0.0 
4.20051 4.07495 0.0 
5.1156 4.15193 0.0 
4.18755 4.11048 0.0 
4.75711 4.03969 0.0 
4.02813 3.92134 0.0 
4.29625 3.95054 0.0 
4.71035 4.02722 0.0 
4.35999 3.9441 0.0 
4.24711 4.08557 0.0 
8.75684 0.585272 0.0 
4.02358 4.02452 0.0 
3.93575 3.98835 0.0 
4.71832 3.98631 0.0 
4.54578 3.97745 0.0 
4.99347 4.02007 0.0 
4.39273 4.07056 0.0 
4.00749 3.97714 0.0 
4.30669 3.9457 0.0 
5.40558 3.95565 0.0 
0.260039 6.58743 0.0 
4.27995 4.04964 0.0 
4.21428 4.08445 0.0 
4.0277 4.00858 0.0 
4.44438 4.05445 0.0 
6.48991 5.70078 0.0 
4.17782 3.97888 0.0 
4.00854 4.04134 0.0 
8.03046 5.83915 0.0 
4.47844 4.06563 0.0 
4.14535 3.95351 0.0 
4.51417 4.06383 0.0 
5.37884 4.0258 0.0 
5.00162 3.97999 0.0 
4.19928 4.09567 0.0 
4.96669 3.99779 0.0 
4.3244 4.08345 0.0 
4.11241 4.05725 0.0 
4.24855 3.98778 0.0 
4.01731 3.97083 0.0 
4.24632 4.05089 0.0 
4.07165 4.04253 0.0 
4.09154 3.93527 0.0 
4.01683 4.05945 0.0 
4.6559 7.60199 0.0 
4.99249 4.01448 0.0 
4.10803 3.99306 0.0 
4.15806 3.96687 0.0 
4.44131 3.95584 0.0 
3.99835 4.02918 0.0 
4.04366 4.07594 0.0 
9.54246 2.53384 0.0 
5.40929 4.1244 0.0 
5.3262 4.0473 0.0 
5.05532 3.96524 0.0 
2.53633 0.42227 0.0 
4.19551 3.97637 0.0 
3.99623 4.03627 0.0 
4.03277 4.00935 0.0 
4.05133 4.02283 0.0 
3.92298 4.03296 0.0 
4.00757 3.98474 0.0 
4.1755 3.94311 0.0 
4.36691 4.08793 0.0 
4.0781 3.98964 0.0 
4.22361 4.04691 0.0 
3.97063 4.01516 0.0 
5.61751 3.88935 0.0 
13.2307 4.08236 0.0 
4.00652 4.03234 0.0 
2.48936 3.97501 0.0 
4.42014 4.08348 0.0 
12.5548 8 0.0 
4.00427 4.04292 0.0 
4.21238 3.95931 0.0 
4.84877 4.02632 0.0 
4.03868 4.02686 0.0 
4.99643 3.98691 0.0 
3.99047 3.98781 0.0 
4.28559 4.07835 0.0 
4.04839 4.01492 0.0 
4.06425 3.93419 0.0 
4.00032 4.0278 0.0 
4.98996 3.97879 0.0 
5.29766 3.97245 0.0 
4.80559 4.0533 0.0 
4.48212 4.10458 0.0 
4.3994 3.99099 0.0 
4.22618 4.07263 0.0 
4.95666 3.99568 0.0 
4.38228 4.0385 0.0 
4.07094 4.14289 0.0 
4.11672 3.96736 0.0 
4.1401 3.98497 0.0 
4.10988 3.95698 0.0 
4.88649 4.02169 0.0 
8.83615 7.25521 0.0 
4.04131 3.99766 0.0 
4.01642 4.02268 0.0 
5.03609 3.98885 0.0 
0.712024 5.21358 0.0 
3.9756 4.08504 0.0 
4.037 4.008 0.0 
4.06005 3.96532 0.0 
4.57973 4.05787 0.0 
4.04847 4.04817 0.0 
4.01118 3.98048 0.0 
0 0.509497 0.0 
4.19216 3.95644 0.0 
5.78028 4.10939 0.0 
3.9514 4.04615 0.0 
4.80927 4.04945 0.0 
4.03373 4.01881 0.0 
4.80166 4.03278 0.0 
4.11892 4.09278 0.0 
4.23437 4.04707 0.0 
4.0241 4.0517 0.0 
4.03402 4.05512 0.0 
4.01068 3.99745 0.0 
4.02872 3.99494 0.0 
4.49224 4.08354 0.0 
4.40413 4.05425 0.0 
4.02241 4.02913 0.0 
3.98656 4.03719 0.0 
5.02756 3.99082 0.0 
4.01424 4.03115 0.0 
3.90877 4.04107 0.0 
4.21846 3.91954 0.0 
5.69902 3.95263 0.0 
5.99136 3.96333 0.0 
4.9511 3.99745 0.0 
4.07021 3.95517 0.0 
4.2533 4.06562 0.0 
4.34616 4.09811 0.0 
4.28556 3.95712 0.0 
3.91654 3.93923 0.0 
12.6925 3.76545 0.0 
4.24693 3.91959 0.0 
4.27984 4.07852 0.0 
4.99566 4.00295 0.0 
4.39635 3.90538 0.0 
4.00518 3.97325 0.0 
5.01982 4.03188 0.0 
4.83108 4.02802 0.0 
4.35454 4.08492 0.0 
4.4687 4.06594 0.0 
4.4241 3.97133 0.0 
4.47868 4.08142 0.0 
6.05516 4.9029 0.0 
4.44974 4.06775 0.0 
4.82088 3.98824 0.0 
7.34295 7.0434 0.0 
4.46097 4.11169 0.0 
4.1316 4.07308 0.0 
4.12603 3.95528 0.0 
4.05163 3.99747 0.0 
4.78457 4.06251 0.0 
3.9869 4.03092 0.0 
7.04117 3.02649 0.0 
10.0426 3.19606 0.0 
4.06987 3.96362 0.0 
3.99891 4.05059 0.0 
4.20743 4.08772 0.0 
3.99154 4.0424 0.0 
4.75205 4.0403 0.0 
4.01671 4.01538 0.0 
5.18714 4.00904 0.0 
4.05033 4.00375 0.0 
6.37312 3.96065 0.0 
4.46706 4.06813 0.0 
4.03734 3.98999 0.0 
4.20672 4.05011 0.0 
3.98689 4.0502 0.0 
4.18584 4.06286 0.0 
4.04817 3.99065 0.0 
3.9746 4.03383 0.0 
4.09231 4.04928 0.0 
4.4013 4.0689 0.0 
4.23967 3.9471 0.0 
4.28219 4.07607 0.0 
4.11872 3.94508 0.0 
3.97752 4.04103 0.0 
4.43771 3.8822 0.0 
4.82678 4.05917 0.0 
3.99979 3.98858 0.0 
4.17675 4.04307 0.0 
4.94426 4.0112 0.0 
4.22991 4.06583 0.0 
10.9824 1.64493 0.0 
0 3.17328 0.0 
4.11267 3.96206 0.0 
4.0784 3.94608 0.0 
3.94839 3.98159 0.0 
4.09611 4.04839 0.0 
4.27968 3.89833 0.0 
4.02494 3.98684 0.0 
4.24867 4.13525 0.0 
3.99069 3.9699 0.0 
4.74103 3.98571 0.0 
3.99271 3.9642 0.0 
4.7134 3.93127 0.0 
3.99956 3.96553 0.0 
4.5273 3.97518 0.0 
4.37258 4.09634 0.0 
4.92587 3.99537 0.0 
4.01563 3.96922 0.0 
4.45366 2.003 0.0 
4.40345 4.04411 0.0 
4.03511 4.02549 0.0 
4.21802 3.99172 0.0 
4.23043 4.08769 0.0 
4.69658 4.04618 0.0 
4.0671 3.98981 0.0 
4.60386 3.95084 0.0 
4.00699 3.96684 0.0 
3.93409 4.0511 0.0 
4.07577 3.95908 0.0 
6.27584 7.1793 0.0 
4.20258 4.06282 0.0 
13.577 4.45538 0.0 
4.04289 3.99471 0.0 
4.95527 4.00974 0.0 
4.69638 3.95503 0.0 
[...]
<PointData>
  <DataArray type = "Float64" Name="Vitesse" NumberOfComponents="3" format="ascii">
1 0 0.0 
1.00916 0 0.0 
1.0058 0 0.0 
1 0 0.0 
0.00591119 -0.000519628 0.0 
0.0608023 0.0740421 0.0 
0.176063 -0.0109724 0.0 
0.866472 0.00174508 0.0 
0.948786 -0.310906 0.0 
0.805563 0.237847 0.0 
0.00877051 0.000349026 0.0 
0.0281782 0.000861086 0.0 
1.08619 0.20212 0.0 
1.00893 -0.000377183 0.0 
0.0112315 0.000302366 0.0 
0.233097 -0.00583917 0.0 
0.727084 -0.042909 0.0 
0.841765 0.0782965 0.0 
1.00867 0 0.0 
0.108726 -0.0114401 0.0 
0.932107 0.00289658 0.0 
0.113765 0.00596026 0.0 
0.490719 -0.00639486 0.0 
0.0290888 0.00165112 0.0 
0 0 0.0 
1.01499 -0.00855134 0.0 
0 0 0.0 
-1.07537e-128 -1.08801e-129 0.0 
0.00974764 0.000316655 0.0 
0 0 0.0 
0.176356 -0.00382731 0.0 
1.00995 0.000147582 0.0 
0.822449 0.209063 0.0 
0 0 0.0 
0.0547147 -0.00909701 0.0 
0 0 0.0 
1.01001 0.000412703 0.0 
1.01006 0.000789884 0.0 
0 0 0.0 
0.947091 0.308228 0.0 
0 0 0.0 
0.13326 0.00613567 0.0 
0 0 0.0 
0.636873 -0.0520286 0.0 
0.839361 0.205091 0.0 
0.0448522 -0.00777333 0.0 
1.02116 -0.221206 0.0 
0.937699 0.242059 0.0 
0.730553 0.00295841 0.0 
0.244456 0.02568 0.0 
1.03583 -0.0640637 0.0 
0.257527 0.0117014 0.0 
0.528837 -0.00378691 0.0 
0.301605 0.0895772 0.0 
0.106709 0.00326251 0.0 
0 0 0.0 
0 0 0.0 
0.172985 0.0222595 0.0 
0.0257464 -0.00402127 0.0 
0.391235 0.21203 0.0 
0.312755 0.00246813 0.0 
0 0 0.0 
0.0472644 -0.00627548 0.0 
0 0 0.0 
0.998069 0.278703 0.0 
0.164227 0.00533203 0.0 
0.0326315 0.00125141 0.0 
1.00234 0.0334254 0.0 
0.0755117 -0.0189236 0.0 
0 0 0.0 
0.386185 0.0352126 0.0 
0.563913 0.137272 0.0 
0.520711 -0.453635 0.0 
0.841245 0.271148 0.0 
0.74001 0.0583705 0.0 
0.90653 0.210709 0.0 
0.549891 0.298044 0.0 
0 0 0.0 
0.979889 0.0225202 0.0 
1.03571 0.106172 0.0 
0.324326 0.0896619 0.0 
0.25378 0.0023505 0.0 
0.989224 -0.147452 0.0 
1.01002 0.00103724 0.0 
0.0706966 -0.00833441 0.0 
0 0 0.0 
0.071972 -0.0093394 0.0 
0.861163 -0.00173478 0.0 
0.650286 0.0942282 0.0 
0.223737 -0.00652476 0.0 
0.0939096 -0.0158087 0.0 
0.586399 -0.0382553 0.0 
0.305861 0.00527093 0.0 
0.140852 -0.0137201 0.0 
0.416839 -0.0101467 0.0 
0.854175 0.228297 0.0 
0.891371 -0.00309838 0.0 
0.818012 0.0592289 0.0 
1.01159 0.0280577 0.0 
0.667339 0.0195229 0.0 
0.757396 0.252267 0.0 
1.01077 0.00193434 0.0 
0.0572638 0.000242528 0.0 
0.0325825 -0.012812 0.0 
0.00777267 7.93282e-05 0.0 
0.529185 -0.0138512 0.0 
0.156711 0.000726049 0.0 
0.0969494 -0.00180643 0.0 
0.704699 0.148162 0.0 
1.00495 -0.0876765 0.0 
0.00416617 -0.000408476 0.0 
0.112049 0.0195833 0.0 
4.46845e-08 5.68203e-09 0.0 
0 0 0.0 
0.0146869 -0.00373307 0.0 
1.76284e-05 8.06259e-06 0.0 
0.137278 0.00775527 0.0 
0.209714 0.0182705 0.0 
0.0033811 -0.00059181 0.0 
0 0 0.0 
0.962104 -0.00299619 0.0 
1.01947 -0.116037 0.0 
0.122555 -0.0141841 0.0 
0.0079701 0.00035772 0.0 
0.952191 -0.244925 0.0 
1.34112e-05 1.15847e-06 0.0 
1.00273 -0.00613508 0.0 
0 0 0.0 
0.81613 0.365368 0.0 
0 0 0.0 
0.00844177 -5.43792e-05 0.0 
0.194196 0.00806105 0.0 
0.014397 -0.00128612 0.0 
0.0839226 -0.0152821 0.0 
0.0229196 -0.000243334 0.0 
0.798568 0.112636 0.0 
0.127126 0.0109928 0.0 
0.015721 -0.00256144 0.0 
0.0346562 -0.0019254 0.0 
0.0645595 -0.0128333 0.0 
0.247995 0.00871912 0.0 
0.070016 -0.0186715 0.0 
0.706412 0.0905921 0.0 
0.201773 -0.0264501 0.0 
0 0 0.0 
0.291197 0.0928232 0.0 
0.144329 -0.01362 0.0 
0.945244 0.139661 0.0 
0.814707 -0.0270918 0.0 
0.0741379 -0.0132017 0.0 
0.525446 -0.000525682 0.0 
0.534651 -0.00910788 0.0 
0.999801 0.00329251 0.0 
0 0 0.0 
0.518007 0.174577 0.0 
0.129938 -0.0197974 0.0 
0.0572221 0.00289811 0.0 
0.989852 -0.310952 0.0 
0 0 0.0 
0.415886 -0.0130698 0.0 
0 0 0.0 
0.889592 -0.0125347 0.0 
0.471916 -0.438039 0.0 
0 0 0.0 
0.039797 0.00143052 0.0 
0.607958 -0.190055 0.0 
0.184143 0.0148027 0.0 
0.0697401 0.00923271 0.0 
0.155156 0.0162349 0.0 
0.814934 0.325868 0.0 
0.0174993 0.00135891 0.0 
0.478875 -0.0109658 0.0 
0.023214 0.000135923 0.0 
0.177682 0.0115411 0.0 
0.549252 0.0150847 0.0 
0.0596332 -0.00164302 0.0 
0.59324 -0.00186994 0.0 
0.0760916 -0.0120817 0.0 
-1.1166e-90 -1.29143e-91 0.0 
0.138888 0.00349732 0.0 
0.564654 0.0400219 0.0 
0.72128 -0.0423195 0.0 
0.2986 0.0567906 0.0 
0 0 0.0 
0.0567936 0.00304666 0.0 
0.991433 -0.322491 0.0 
0.224696 0.0147752 0.0 
1.01097 -0.00137569 0.0 
0.884721 -0.223849 0.0 
0.983576 0.00231173 0.0 
0.135385 0.00261831 0.0 
1.71563e-06 1.34029e-07 0.0 
0.0752451 0.0249761 0.0 
0.990633 0.223348 0.0 
0.734544 -0.000865625 0.0 
0.0596773 -0.00679961 0.0 
0.443423 -0.0364199 0.0 
0.502952 0.00953601 0.0 
0.0277832 -0.00576455 0.0 
0.140564 -0.0148537 0.0 
0.246228 0.0688677 0.0 
0.0079467 -0.0025291 0.0 
0 0 0.0 
0.177828 -0.0111324 0.0 
0.000823801 8.19774e-05 0.0 
0.204239 0.0241758 0.0 
0 0 0.0 
0.07287 0.0081016 0.0 
0.949908 -0.225096 0.0 
0.257962 -0.115061 0.0 
1.00001 0.000172344 0.0 
0.177134 0.00491553 0.0 
0.922761 -0.197808 0.0 
1.01168 -0.00271927 0.0 
1.02967 0.0451312 0.0 
0.0110264 0.000387615 0.0 
1.04711 -0.0219651 0.0 
0.210675 0.00302777 0.0 
5.62274e-07 -3.41324e-08 0.0 
0 0 0.0 
1.00033 -0.0108024 0.0 
0.853952 -0.20637 0.0 
0.350729 -0.103309 0.0 
0.327152 -0.00895436 0.0 
0.906044 0.0970023 0.0 
0.413342 0.0248829 0.0 
0.403631 0.0305594 0.0 
0.000169273 1.10687e-05 0.0 
0.58582 0.302818 0.0 
0.132794 -0.0176019 0.0 
0.192915 -0.0157885 0.0 
1.00901 0 0.0 
0.38803 -0.00823703 0.0 
-1.09518e-182 1.59066e-183 0.0 
0 0 0.0 
0.0101153 -0.00127117 0.0 
0.885065 0.012698 0.0 
1.04131 -0.237982 0.0 
0.781284 0.339079 0.0 
0.367074 0.00328764 0.0 
1.00262 0 0.0 
0.475457 -0.0738077 0.0 
0.654183 0.00824746 0.0 
0 0 0.0 
0 0 0.0 
0.00708348 -0.000775037 0.0 
0.921776 0.323191 0.0 
1.12267 0.075037 0.0 
1.00727 -7.36106e-05 0.0 
0.93274 0.104749 0.0 
0.407079 0.0288802 0.0 
0.426691 0.0480871 0.0 
0.970251 -0.0470163 0.0 
1.08477 0.165702 0.0 
0.00656189 -0.000446389 0.0 
0.999562 -0.234026 0.0 
0.347177 0.000422572 0.0 
0 0 0.0 
0.444789 0.00242364 0.0 
0.568646 0.0491816 0.0 
1.00873 3.36462e-05 0.0 
0.0517378 0.023663 0.0 
0.776938 -0.0603112 0.0 
-1.35961e-93 -1.37924e-94 0.0 
0.00016156 1.80778e-05 0.0 
0.0507419 -0.0126017 0.0 
0.0473522 0.0017443 0.0 
0.761769 -0.433119 0.0 
0.43774 -0.000890627 0.0 
0.523323 0.0194037 0.0 
1.00001 0.000279066 0.0 
0 0 0.0 
0.646981 0.0727854 0.0 
0 0 0.0 
0 0 0.0 
1.01245 -0.00285765 0.0 
0 0 0.0 
0.747686 0.354201 0.0 
1.00975 -0.00158427 0.0 
0.0160984 -0.00151349 0.0 
0.47155 -0.0330792 0.0 
0.0188291 -0.00121826 0.0 
0.304247 -0.00869827 0.0 
0.186645 0.0202107 0.0 
0.934769 0.128804 0.0 
0.000119503 3.9469e-06 0.0 
0.356614 0.0114709 0.0 
0.338299 0.0666971 0.0 
0 0 0.0 
0.845839 -0.368424 0.0 
0 0 0.0 
0.104897 0.0337189 0.0 
1.05352 -0.175356 0.0 
0.850234 0.316707 0.0 
1.00858 0.000762782 0.0 
0.0318166 -0.00908964 0.0 
0 0 0.0 
0.0313304 -0.00326034 0.0 
0.250152 0.00620354 0.0 
0.612303 0.322535 0.0 
0.949154 0.299659 0.0 
1.01017 -0.000450743 0.0 
0.867673 -0.032469 0.0 
0.371277 -0.0206023 0.0 
0.338322 0.0291622 0.0 
1.0023 -0.000824789 0.0 
0 0 0.0 
0.675303 0.293605 0.0 
0 0 0.0 
0 0 0.0 
0.802576 0.0375396 0.0 
0.456422 -0.295441 0.0 
0.672095 -0.0411409 0.0 
0.414133 0.00632576 0.0 
0 0 0.0 
0 0 0.0 
0.620908 0.0446388 0.0 
0.893308 0.0176528 0.0 
0.865019 0.00303319 0.0 
0.663701 0.37274 0.0 
0.993421 0.000512712 0.0 
0.298102 -0.00379874 0.0 
1.00681 0 0.0 
0.741938 0.32845 0.0 
0.195421 -0.00190891 0.0 
0.0017237 -0.000256879 0.0 
-2.73447e-190 -9.89147e-191 0.0 
0.121138 0.0138832 0.0 
0.541363 -0.342272 0.0 
0.283888 0.0154211 0.0 
0 0 0.0 
1.06909 -0.22526 0.0 
0.597747 0.34258 0.0 
0.192626 0.0148455 0.0 
0.380906 0.01817 0.0 
0.134499 -0.0136814 0.0 
0.657977 -0.00625931 0.0 
0 0 0.0 
0.257562 0.0221367 0.0 
0.01303 0.000405348 0.0 
0 0 0.0 
1.00775 0.197049 0.0 
0.0938554 -0.00979431 0.0 
0 0 0.0 
0.492477 -0.048538 0.0 
0.00512879 -0.000619668 0.0 
1.00835 -0.000367441 0.0 
0 0 0.0 
0.209883 0.115487 0.0 
0.132308 0.017428 0.0 
0.999909 0.000976101 0.0 
0.849099 0.176097 0.0 
0 0 0.0 
0.51316 -0.0968937 0.0 
0.00516247 -0.000322219 0.0 
0.72314 0.260781 0.0 
0.591179 -0.321059 0.0 
1 0 0.0 
0.287241 -0.00888706 0.0 
0.813323 -0.0191136 0.0 
0.771548 0.100552 0.0 
0.107052 -0.0113747 0.0 
0 0 0.0 
1.41931e-06 2.56589e-08 0.0 
1.05029 0.231275 0.0 
0 0 0.0 
0.850829 0.354479 0.0 
0.885496 0.345932 0.0 
0 0 0.0 
0 0 0.0 
0.303433 -0.00967163 0.0 
0 0 0.0 
0.406115 0.207507 0.0 
0.678058 0.223177 0.0 
0.111584 0.0161002 0.0 
0.628683 0.359722 0.0 
0.829271 0.0395738 0.0 
0.984613 -0.0602663 0.0 
0.596059 0.0126144 0.0 
0.586071 0.00782496 0.0 
1.41533e-06 5.30516e-08 0.0 
0.813342 -0.15109 0.0 
7.1969e-17 3.79895e-18 0.0 
0.652754 0.0236966 0.0 
0.21913 0.00127615 0.0 
0.866586 -0.0952624 0.0 
0.93791 0.00607878 0.0 
0.946221 -0.045568 0.0 
0.298715 0.0165261 0.0 
0.00441783 -0.00139824 0.0 
0.952227 -0.014323 0.0 
0.81582 -0.43454 0.0 
0.113151 -0.02262 0.0 
-2.33653e-91 3.2092e-92 0.0 
0.358168 0.00606575 0.0 
0.0132341 -0.0012313 0.0 
0.0185226 0.00100767 0.0 
0.264569 -0.00834073 0.0 
1.01567 -0.00745321 0.0 
0.0284474 -0.00130396 0.0 
0.0220114 0.000886923 0.0 
1.00948 -0.000691855 0.0 
0.776924 0.00204345 0.0 
0.744885 0.148423 0.0 
0.4821 -0.0424527 0.0 
0 0 0.0 
0.202409 -0.0182605 0.0 
0.632109 0.218294 0.0 
1.01034 0.00183266 0.0 
1.01074 -0.00134336 0.0 
0.493479 -0.0807416 0.0 
0.76669 0.280378 0.0 
0.754552 0.0930084 0.0 
0.711241 0.254211 0.0 
0.0065811 -0.000950747 0.0 
0 0 0.0 
0.176511 0.000743546 0.0 
0 0 0.0 
0.636951 0.00502422 0.0 
0.0447298 -0.00291536 0.0 
0 0 0.0 
0 0 0.0 
0.749295 0.225433 0.0 
0.0661422 0.00883897 0.0 
0 0 0.0 
0.6808 0.149018 0.0 
0.172278 0.0440381 0.0 
0.0139132 -0.000398233 0.0 
0.459601 -0.00838316 0.0 
0.228168 0.0119496 0.0 
0.814104 -0.0933862 0.0 
0.709452 0.177409 0.0 
1.05121 -0.0161829 0.0 
0.198317 -0.0188442 0.0 
0.463013 -0.436561 0.0 
0 0 0.0 
0.00118441 -0.000199792 0.0 
0.0324224 0.00295834 0.0 
1.01 -0.000712567 0.0 
1 0 0.0 
0.294236 -0.0242156 0.0 
0.972957 -0.177003 0.0 
0.757271 -0.0976463 0.0 
0.074511 0.0150921 0.0 
1.06234 -0.0498209 0.0 
3.81635e-170 -1.87612e-170 0.0 
1.12086 0.12339 0.0 
0.763391 -0.32797 0.0 
0.0128218 0.0006075 0.0 
0.80834 -0.320709 0.0 
0.603987 0.0165891 0.0 
0.833321 -0.364115 0.0 
0.0178547 0.000928181 0.0 
0.585003 0.0132212 0.0 
0.000325535 1.88725e-05 0.0 
0.881983 -0.389987 0.0 
1.01042 -0.00554067 0.0 
0 0 0.0 
-4.87656e-188 -1.97049e-188 0.0 
0 0 0.0 
0.672934 0.0689018 0.0 
0.00385523 -0.000214005 0.0 
0 0 0.0 
0.352788 0.0114832 0.0 
0.872117 -0.399452 0.0 
0.806225 0.077884 0.0 
0.635095 -0.10209 0.0 
1.01017 -0.000256667 0.0 
9.38557e-08 2.2059e-09 0.0 
1.00924 -0.00742673 0.0 
0 0 0.0 
0.00184023 -0.000268148 0.0 
0.324266 0.0119652 0.0 
0.226579 0.000303147 0.0 
0.817311 0.0993225 0.0 
0 0 0.0 
0.62327 0.195928 0.0 
0 0 0.0 
0.334984 -0.010916 0.0 
0 0 0.0 
0.0144002 0.000441207 0.0 
0.542222 -0.0110131 0.0 
0.0151793 0.00124129 0.0 
0 0 0.0 
0.0888724 -0.00971288 0.0 
1.10599 0.0992691 0.0 
1.02165 0.222594 0.0 
0.757475 -0.0250115 0.0 
0.106906 0.00473328 0.0 
0 0 0.0 
0.763572 0.0802819 0.0 
0.138101 0.00319898 0.0 
0.680002 -0.0773967 0.0 
0.627202 -0.0293485 0.0 
1.00506 -0.0478649 0.0 
0.00696228 0.00213088 0.0 
0 0 0.0 
0.427245 -0.00206284 0.0 
0.00559264 -0.000502862 0.0 
0.026115 -0.00259255 0.0 
0.719975 0.127833 0.0 
0.882486 -0.202156 0.0 
0.874664 0.337264 0.0 
0.87949 -0.120087 0.0 
0.774403 0.123733 0.0 
0 0 0.0 
0.851417 0.0371629 0.0 
0.485818 -0.000780498 0.0 
0.41908 0.0233974 0.0 
0.938673 0.291392 0.0 
0.678654 0.0613775 0.0 
0.0875547 0.0035205 0.0 
0.743659 0.110673 0.0 
0.913962 0.330508 0.0 
0.886014 0.32245 0.0 
0 0 0.0 
0 0 0.0 
0 0 0.0 
0.876983 0.347385 0.0 
0 0 0.0 
0.664809 0.142371 0.0 
0.00279591 -0.00048341 0.0 
0.00437388 -0.000557817 0.0 
0.0515879 0.00216073 0.0 
0.506518 0.0763494 0.0 
0.0926821 -0.0243484 0.0 
0.282579 0.0224538 0.0 
0 0 0.0 
0 0 0.0 
0.639025 0.0531824 0.0 
0.30764 0.0121242 0.0 
0.661455 -0.0513489 0.0 
8.26731e-08 -4.20206e-08 0.0 
0 0 0.0 
0.994028 0.0598077 0.0 
0.577493 -0.000297179 0.0 
0.259858 0.0228203 0.0 
0.905518 0.0613886 0.0 
1.00139 0.00299501 0.0 
-1.15858e-199 -4.65359e-200 0.0 
0.605 -0.277774 0.0 
1.01159 0.000115536 0.0 
0.649863 0.0494692 0.0 
0.00782648 -0.000723601 0.0 
0 0 0.0 
0.998104 -0.119024 0.0 
1.05918 0.151938 0.0 
0.287485 -0.0149451 0.0 
0 0 0.0 
0.253306 0.0303907 0.0 
0.999402 -0.0019444 0.0 
1.00633 0 0.0 
0.352267 -0.00995349 0.0 
0 0 0.0 
1.01207 -0.0725721 0.0 
0.238655 -0.0158845 0.0 
1.018 0.274558 0.0 
1.00906 0.000109601 0.0 
0.229795 0.00375291 0.0 
0.828247 -0.0475605 0.0 
0.000131825 1.69265e-05 0.0 
3.51757e-05 1.70794e-07 0.0 
1.03676 0.0513429 0.0 
1.07925 -0.00100384 0.0 
0.98429 -0.046698 0.0 
0 0 0.0 
0.261403 0.0141489 0.0 
0.343758 0.0615663 0.0 
1.00103 0.00320991 0.0 
1.00882 0 0.0 
-4.55392e-47 -4.16657e-48 0.0 
0.214119 0.147139 0.0 
0.0530198 0.0174144 0.0 
0 0 0.0 
0.000162599 1.31888e-05 0.0 
0.668013 -0.123148 0.0 
0.959683 0.0806759 0.0 
0.140896 0.00667892 0.0 
0.847583 0.339195 0.0 
1.01216 -0.00234075 0.0 
0.379458 -0.000852467 0.0 
0.651989 0.302799 0.0 
0.996055 -0.00665864 0.0 
0.206762 -0.0113987 0.0 
1.03448 0.137285 0.0 
0.255076 0.00553351 0.0 
0 0 0.0 
0.975809 -0.12909 0.0 
0.528664 -0.00368929 0.0 
1.21411e-07 8.58722e-09 0.0 
0.902462 0.337791 0.0 
2.28945e-07 -2.80962e-08 0.0 
0.336511 -0.0324226 0.0 
0 0 0.0 
0.276829 -0.00449256 0.0 
-1.83873e-179 2.57964e-180 0.0 
0.0423393 0.00777035 0.0 
0 0 0.0 
0.320758 -0.000659654 0.0 
0.934745 -0.328908 0.0 
0.976217 0.0106805 0.0 
0.821097 0.302707 0.0 
0.954618 -0.204559 0.0 
1.01119 -0.0012044 0.0 
0.630136 0.119347 0.0 
0.538964 -0.00138883 0.0 
-1.47639e-91 -7.69095e-93 0.0 
5.1391e-07 4.21514e-08 0.0 
0.807466 -0.0708786 0.0 
0 0 0.0 
0.921294 -0.140181 0.0 
0.890316 -0.207736 0.0 
0.974099 -0.227109 0.0 
0.968439 -0.047037 0.0 
0.00572575 -0.00071152 0.0 
0.000453981 -2.00499e-05 0.0 
0.778235 -0.134864 0.0 
0.918703 0.0303816 0.0 
0.999262 -0.239372 0.0 
1.01513 0.0121735 0.0 
1.0076 0 0.0 
0.819276 0.0940504 0.0 
1.09801 0.0463115 0.0 
0 0 0.0 
0.759865 0.0554656 0.0 
1.00806 -0.00025238 0.0 
0.0153274 0.000711452 0.0 
0.633454 0.0765578 0.0 
0.0215585 0.000517956 0.0 
1.00025 0.000630436 0.0 
0.0474115 0.00444989 0.0 
0.0324396 -0.000628083 0.0 
0.596292 0.000841213 0.0 
0.99963 -0.000242774 0.0 
1.00615 0.26762 0.0 
1.07534 0.144503 0.0 
0.961094 0.288061 0.0 
0.587982 -0.123957 0.0 
0.836332 0.259175 0.0 
0 0 0.0 
1.00955 -0.000937443 0.0 
1.02075 -0.147088 0.0 
0.664656 -0.0655185 0.0 
0.86757 -0.186885 0.0 
1.01454 0.255945 0.0 
0.0148829 0.00128591 0.0 
0.0443459 0.00210352 0.0 
0 0 0.0 
0.920041 0.0487266 0.0 
0.733644 0.00459897 0.0 
0.556099 -0.0989223 0.0 
0.485151 -0.0218879 0.0 
0.705798 -0.0591622 0.0 
0.228876 0.00200961 0.0 
0.900571 -0.0239203 0.0 
0.537994 -0.0505927 0.0 
1 0 0.0 
0.0834179 0.00941692 0.0 
0.788111 0.262176 0.0 
0.301909 -0.00637033 0.0 
1.05081 -0.0122846 0.0 
0.00152741 -0.000244563 0.0 
0.128555 -0.0044776 0.0 
1.00778 0 0.0 
0.923564 0.256593 0.0 
0.10187 0.0056639 0.0 
0.99958 -0.000843566 0.0 
0 0 0.0 
1.0103 0.00083367 0.0 
0.0764233 0.0217772 0.0 
0.853879 0.275243 0.0 
0.00328171 -0.000381694 0.0 
5.46446e-07 -6.1374e-08 0.0 
0 0 0.0 
0.464332 0.0695005 0.0 
1.00903 0 0.0 
0.939645 -0.0630757 0.0 
0 0 0.0 
0.00632512 -0.000281001 0.0 
0 0 0.0 
4.75918e-137 7.25987e-140 0.0 
0.654352 -0.0181261 0.0 
0.268126 0.0246786 0.0 
1.00035 0.000418988 0.0 
0 0 0.0 
0.815169 0.0143289 0.0 
0.383032 0.0448257 0.0 
0 0 0.0 
0.139328 -0.00872893 0.0 
0.00999754 -0.000426922 0.0 
0.885986 -0.0303726 0.0 
0.975484 -0.0866684 0.0 
0.00576398 0.000412223 0.0 
0.0250452 -0.000437766 0.0 
0.107287 0.00579923 0.0 
0.183368 0.0106816 0.0 
0.970925 0.164042 0.0 
0.765805 0.00102999 0.0 
0 0 0.0 
0.96745 -0.000410418 0.0 
0.831427 -0.0380691 0.0 
0 0 0.0 
0 0 0.0 
0.898079 0.187892 0.0 
1.2657e-05 6.78807e-07 0.0 
1.10754 0.142603 0.0 
1.00749 -0.00128384 0.0 
0.791894 0.16791 0.0 
0.0169672 -0.000683752 0.0 
0.87775 0.261465 0.0 
0.400837 0.176902 0.0 
0.377767 -0.0307939 0.0 
0.00411967 -0.000398308 0.0 
0.086961 -0.00926607 0.0 
0 0 0.0 
0.059645 -0.00695314 0.0 
0.930875 0.0957983 0.0 
1.00846 0.0723903 0.0 
0.49795 -0.040249 0.0 
0 0 0.0 
1.02227 -0.172024 0.0 
0 0 0.0 
1.00649 -0.13383 0.0 
1.03674 0.128287 0.0 
0.860839 0.157802 0.0 
0.863679 0.011465 0.0 
1.00161 -0.00547202 0.0 
0.0175005 -0.000519444 0.0 
1.06738 -0.146388 0.0 
2.84107e-06 1.54256e-07 0.0 
0.66278 -0.0217835 0.0 
0 0 0.0 
0 0 0.0 
0.428462 -0.0153582 0.0 
1.07637 0.0506139 0.0 
0.878543 0.190092 0.0 
0.0363728 -0.00259254 0.0 
0.515458 -0.0233615 0.0 
1.01231 0.00236759 0.0 
0 0 0.0 
0.901861 0.106577 0.0 
1.06674 -0.0343859 0.0 
0.378982 0.0271936 0.0 
0 0 0.0 
0 0 0.0 
0.862701 -0.13469 0.0 
1 0 0.0 
0.372357 -0.00210707 0.0 
1.01613 0.00655545 0.0 
1.00787 0.240731 0.0 
1.00835 0.278999 0.0 
0.345097 -0.0110015 0.0 
0 0 0.0 
0.966594 -0.00504894 0.0 
0.00612713 0.000348581 0.0 
4.08526e-06 2.67976e-07 0.0 
0.815358 -0.0915899 0.0 
0 0 0.0 
0 0 0.0 
0 0 0.0 
1.0013 0 0.0 
0.880258 0.0965811 0.0 
0.504716 0.0406744 0.0 
0.0598087 0.00292669 0.0 
1.00006 0.0241788 0.0 
0.662926 -0.00112865 0.0 
0 0 0.0 
1.00082 0.00696075 0.0 
0.0372081 -0.00505438 0.0 
0.195448 0.0100565 0.0 
0.0508959 0.000557705 0.0 
0 0 0.0 
0.365279 -0.0323747 0.0 
0.159194 0.00851881 0.0 
0.5397 0.00809957 0.0 
1.00968 0 0.0 
1.01002 -0.286549 0.0 
0.0930995 -0.162022 0.0 
0 0 0.0 
1.0942 -0.151355 0.0 
0.0522816 0.00303716 0.0 
0 0 0.0 
0.039131 0.00883179 0.0 
0 0 0.0 
1.0007 -0.00118458 0.0 
1.05098 0.21763 0.0 
1.08988 -0.146041 0.0 
0.977256 -0.339383 0.0 
0.259408 0.0440508 0.0 
0.596048 0.00337477 0.0 
0.573861 0.0981435 0.0 
0 0 0.0 
0.901422 0.211599 0.0 
1.02036 0.0126977 0.0 
1 0 0.0 
0.00830176 0.00069566 0.0 
0.918319 0.0790122 0.0 
0.70019 0.0163169 0.0 
-3.62792e-48 -5.87651e-49 0.0 
1.0011 0.00237372 0.0 
0.0309176 -0.000335925 0.0 
0.0124036 -0.00129849 0.0 
0 0 0.0 
0.551423 -0.00806183 0.0 
0.458802 0.0230537 0.0 
0.969583 0.203158 0.0 
0.928677 0.307737 0.0 
0.189077 -0.0105126 0.0 
0.898439 -0.114607 0.0 
1.03229 -0.249147 0.0 
0.320191 -0.021081 0.0 
0.428149 0.205505 0.0 
0.0770368 0.00654282 0.0 
0.0971916 0.0432917 0.0 
0.288133 -0.0148757 0.0 
0.200251 0.00547834 0.0 
0.978958 -0.014298 0.0 
1.01089 -0.00137845 0.0 
0.24891 -0.0049434 0.0 
0 0 0.0 
0.445979 0.048261 0.0 
0.919177 0.275142 0.0 
0 0 0.0 
0 0 0.0 
0.904775 -0.244578 0.0 
0.00742797 0.000575925 0.0 
0 0 0.0 
0.00515239 0.000591737 0.0 
0.179546 0.00964553 0.0 
0.89232 0.117701 0.0 
0.262301 -5.53801e-05 0.0 
0.272286 -0.000836659 0.0 
0.831075 -0.255735 0.0 
0.617433 0.000694334 0.0 
0.259299 0.0528252 0.0 
0.867171 0.281401 0.0 
0 0 0.0 
1.01427 -0.00466113 0.0 
0.0675264 0.00291269 0.0 
1.19059e-09 -4.20328e-10 0.0 
0.970355 -0.0663594 0.0 
1.00115 -0.0327575 0.0 
1.00001 5.03486e-05 0.0 
0.0111657 -0.000686048 0.0 
0.922227 -0.338469 0.0 
0 0 0.0 
0 0 0.0 
0.473018 0.0479742 0.0 
0.0178084 0.000326303 0.0 
0.208568 -0.0035247 0.0 
0.125317 0.00647299 0.0 
0.317846 -0.000746371 0.0 
0.0164355 0.00131527 0.0 
0 0 0.0 
0.889638 -0.174214 0.0 
0.977115 -0.128359 0.0 
1e-307 1e-307 0.0 
1.02009 0.233545 0.0 
0.618021 -0.150996 0.0 
0 0 0.0 
0.0128454 -0.00103077 0.0 
0.93312 -0.366557 0.0 
1.01318 -0.00274615 0.0 
0.952726 -0.0038237 0.0 
0.383393 0.0364821 0.0 
0.472292 0.00248758 0.0 
0.210647 0.0252972 0.0 
0.245726 -0.258262 0.0 
1.1254 0.0590753 0.0 
0 0 0.0 
0.789481 -0.0929175 0.0 
0.529537 0.0930766 0.0 
1.01587 -0.00334795 0.0 
0.738804 -0.230769 0.0 
7.43105e-06 -4.44887e-07 0.0 
0 0 0.0 
1.01011 0.000741956 0.0 
0.965638 -0.0320083 0.0 
0.108642 0.0118939 0.0 
6.66916e-06 -1.25219e-06 0.0 
1.01151 0.00100346 0.0 
0.519666 0.132643 0.0 
0.0208733 -0.00176733 0.0 
0.965822 -0.296896 0.0 
0.770386 -0.218021 0.0 
0.697982 0.0456842 0.0 
1.07816 0.191255 0.0 
0.760615 -0.00173918 0.0 
0.349311 0.0714211 0.0 
0 0 0.0 
0.783781 0.185373 0.0 
0.678 0.000189331 0.0 
1.04554 0.250327 0.0 