<VTKFile type="UnstructuredGrid" version="0.1" byte_order="LittleEndian">
  <UnstructuredGrid>
    <Piece NumberOfPoints="13562" NumberOfCells="26966">
      <Points>
        <DataArray type = "Float64" NumberOfComponents="3" format="ascii">
0 0 0.0 
14 0 0.0 
14 8 0.0 
0 8 0.0 
4.0236 3.94782 0.0 
4.33291 4.07121 0.0 
5.15553 4.02606 0.0 
4.95129 3.99618 0.0 
4.01347 3.94819 0.0 
4.35286 4.10928 0.0 
4.61635 4.05509 0.0 
4.03015 3.95696 0.0 
4.3205 3.95191 0.0 
5.40536 3.95568 0.0 
4.44465 4.07977 0.0 
2.48936 3.97501 0.0 
4.34372 4.14939 0.0 
8.40909 0 0.0 
4.79858 4.05061 0.0 
4.96112 4.00777 0.0 
4.02875 3.98143 0.0 
3.08171 2.09887 0.0 
4.06288 4.03688 0.0 
4.07098 4.14291 0.0 
8.71087 4.14105 0.0 
4.51366 4.0401 0.0 
5.85237 5.21683 0.0 
4.07282 3.94673 0.0 
4.4096 4.07715 0.0 
11.4371 2.11828 0.0 
4.09422 4.06655 0.0 
4.6606 3.98323 0.0 
5.03122 4.01313 0.0 
4.04721 3.95909 0.0 
5.02679 3.9978 0.0 
4.39827 4.12705 0.0 
4.05789 4.06544 0.0 
4.10075 4.03591 0.0 
4.81354 3.97664 0.0 
4.48295 4.0392 0.0 
4.14394 3.94805 0.0 
4.09973 4.06883 0.0 
4.98031 4.02036 0.0 
4.0631 3.94627 0.0 
4.09324 4.07263 0.0 
4.15353 3.96406 0.0 
5.01594 3.97412 0.0 
4.22735 3.91196 0.0 
0.260039 6.58738 0.0 
4.4788 4.02813 0.0 
4.06915 4.04534 0.0 
4.29328 4.07015 0.0 
4.08538 4.02507 0.0 
4.0538 3.95415 0.0 
4.27473 4.09602 0.0 
4.96872 4.01663 0.0 
3.99368 4.01426 0.0 
4.36755 4.07615 0.0 
4.70681 4.03284 0.0 
4.94587 4.02527 0.0 
4.02105 4.04639 0.0 
3.86117 4.12224 0.0 
4.31812 4.07534 0.0 
10.976 4.12401 0.0 
4.19928 4.09567 0.0 
5.00489 4.02516 0.0 
4.74137 4.04247 0.0 
4.39002 4.06784 0.0 
4.09424 4.05815 0.0 
3.99988 3.98708 0.0 
4.99249 4.01448 0.0 
4.49064 3.97429 0.0 
4.01229 4.05292 0.0 
4.08447 4.04861 0.0 
4.96079 4.00929 0.0 
5.41155 3.85481 0.0 
4.67636 3.93579 0.0 
7.58294 2.91461 0.0 
4.35684 4.08034 0.0 
4.13007 3.95598 0.0 
4.0582 3.9448 0.0 
4.95404 4.00748 0.0 
4.45818 3.99664 0.0 
4.18707 3.95486 0.0 
4.43111 4.06834 0.0 
4.17786 4.07881 0.0 
11.4194 7.77898 0.0 
5.04607 4.02448 0.0 
4.1628 3.94775 0.0 
3.99624 4.02711 0.0 
5.09798 4.0273 0.0 
4.01595 3.91873 0.0 
4.08831 4.06631 0.0 
3.98675 3.91812 0.0 
4.06488 3.97422 0.0 
4.4175 4.12976 0.0 
4.69864 4.03748 0.0 
3.90877 4.04107 0.0 
4.24711 4.08557 0.0 
4.3505 3.96189 0.0 
5.01116 4.01057 0.0 
4.07507 3.94359 0.0 
4.52284 4.09709 0.0 
3.82249 4.13293 0.0 
5.0786 4.01053 0.0 
3.97234 4.03785 0.0 
4.17204 3.92436 0.0 
11.6791 4.2269 0.0 
5.00576 3.98835 0.0 
3.91494 4.13774 0.0 
4.47564 3.99268 0.0 
4.98947 4.00894 0.0 
3.98742 4.01904 0.0 
0 0.509497 0.0 
4.99603 3.97729 0.0 
4.0309 3.97177 0.0 
4.63705 4.04055 0.0 
5.01473 3.99974 0.0 
4.05664 3.81012 0.0 
4.95286 4.03879 0.0 
4.21044 4.06615 0.0 
4.0089 3.92893 0.0 
4.75182 4.04031 0.0 
5.18716 4.00903 0.0 
4.24915 4.05618 0.0 
3.99745 3.98903 0.0 
4.35896 3.94854 0.0 
4.78692 4.03576 0.0 
4.14535 3.95351 0.0 
4.32445 4.08344 0.0 
4.9912 4.02804 0.0 
4.11036 4.05185 0.0 
4.32952 4.06949 0.0 
5.07235 3.99531 0.0 
4.37015 4.09224 0.0 
5.37884 4.0258 0.0 
4.98997 4.02393 0.0 
4.74185 4.03097 0.0 
5.01943 4.02273 0.0 
3.96199 4.03038 0.0 
5.04864 4.04382 0.0 
4.1584 4.03851 0.0 
11.3017 0 0.0 
4.76156 4.05785 0.0 
4.18813 4.09432 0.0 
4.93519 3.99698 0.0 
5.03899 4.01992 0.0 
4.82559 3.98919 0.0 
3.91654 3.93923 0.0 
5.69977 3.9523 0.0 
4.12639 4.05926 0.0 
4.29553 3.96654 0.0 
5.05402 4.03163 0.0 
4.63643 3.98157 0.0 
3.98298 4.00201 0.0 
4.16902 3.98151 0.0 
6.06465 3.94858 0.0 
4.11763 4.04808 0.0 
4.29559 3.95049 0.0 
3.9341 4.0511 0.0 
4.41472 4.04958 0.0 
3.97703 3.93348 0.0 
4.2469 3.91957 0.0 
4.213 4.06906 0.0 
4.96535 3.99151 0.0 
5.0636 3.98872 0.0 
3.97063 4.01516 0.0 
13.2299 4.09318 0.0 
3.98273 4.00621 0.0 
4.44952 4.06775 0.0 
4.98107 3.97981 0.0 
4.11298 4.23664 0.0 
5.03571 4.00684 0.0 
10.7649 3.57703 0.0 
4.98218 4.02738 0.0 
4.18807 3.97537 0.0 
4.41357 3.96274 0.0 
4.27406 4.08825 0.0 
3.95046 4.00001 0.0 
4.01727 3.81715 0.0 
4.22383 4.06305 0.0 
4.64435 3.98159 0.0 
4.04604 3.88153 0.0 
5.15771 3.9871 0.0 
4.30563 3.96974 0.0 
4.40134 4.0689 0.0 
7.10688 3.81214 0.0 
4.42487 3.97144 0.0 
4.21428 4.08445 0.0 
4.21256 4.09139 0.0 
4.22618 4.07263 0.0 
8.92501 4.02764 0.0 
4.39296 4.07057 0.0 
4.5253 3.97499 0.0 
8.83606 7.25521 0.0 
4.98463 4.01475 0.0 
4.88474 4.04745 0.0 
12.6914 3.76329 0.0 
5.00134 4.00081 0.0 
4.00757 3.98474 0.0 
4.11892 4.09278 0.0 
5.01224 3.97834 0.0 
4.02873 4.02055 0.0 
4.0028 3.99482 0.0 
7.34295 7.0434 0.0 
2.53633 0.42227 0.0 
1.61647 2.75158 0.0 
4.43442 3.96057 0.0 
4.01424 4.03115 0.0 
4.34631 4.09802 0.0 
4.34967 4.05447 0.0 
10.9824 1.64492 0.0 
4.4024 3.88713 0.0 
4.32531 3.95741 0.0 
4.03233 3.83793 0.0 
3.93323 3.9254 0.0 
6.18245 4.21201 0.0 
4.2125 3.95912 0.0 
4.02949 3.97631 0.0 
5.42064 4.0275 0.0 
4.27984 4.07853 0.0 
4.28115 4.08293 0.0 
4.25325 4.08014 0.0 
4.00388 3.99185 0.0 
12.5548 8 0.0 
4.98174 4.03773 0.0 
4.68907 4.06774 0.0 
4.79811 4.03451 0.0 
5.99024 2.02162 0.0 
4.17277 4.06079 0.0 
4.0387 4.02685 0.0 
4.00032 4.0278 0.0 
5.86141 3.89 0.0 
4.11422 3.96734 0.0 
4.00975 4.04675 0.0 
6.27584 7.1793 0.0 
2.67239 0 0.0 
4.80559 4.0533 0.0 
4.50728 4.04977 0.0 
4.25 4.04556 0.0 
3.99534 3.99864 0.0 
4.03695 4.06573 0.0 
4.11241 4.05725 0.0 
4.01683 4.05945 0.0 
4.23233 4.101 0.0 
4.26093 4.08097 0.0 
4.20051 4.07495 0.0 
5.7802 4.10952 0.0 
4.18755 4.11048 0.0 
3.95489 3.89679 0.0 
4.70757 4.02754 0.0 
3.9869 4.03092 0.0 
4.44991 4.06708 0.0 
4.35999 3.9441 0.0 
4.94419 4.01128 0.0 
8.75684 0.585272 0.0 
4.36786 3.93619 0.0 
6.37314 3.96065 0.0 
4.28219 4.07607 0.0 
4.19259 3.95633 0.0 
4.99347 4.02007 0.0 
4.60389 3.95085 0.0 
4.00749 3.97714 0.0 
4.22051 3.96572 0.0 
3.79284 4.09599 0.0 
4.25162 3.98747 0.0 
4.27995 4.04964 0.0 
4.33802 3.97981 0.0 
4.0277 4.00858 0.0 
4.44438 4.05445 0.0 
4.83656 4.02878 0.0 
4.11321 3.9619 0.0 
4.00854 4.04134 0.0 
8.03046 5.83915 0.0 
4.49435 4.08361 0.0 
4.58888 3.97943 0.0 
11.6702 4.98151 0.0 
4.82844 4.02971 0.0 
5.00162 3.97999 0.0 
4.25447 3.94259 0.0 
10.495 7.64379 0.0 
4.06947 3.97209 0.0 
4.4822 4.10456 0.0 
4.01731 3.97083 0.0 
4.24632 4.05089 0.0 
4.45366 2.003 0.0 
4.09154 3.93527 0.0 
4.6559 7.60199 0.0 
4.20743 4.08772 0.0 
4.10803 3.99306 0.0 
4.46715 4.0685 0.0 
4.44131 3.95584 0.0 
3.99835 4.02918 0.0 
4.78697 3.98783 0.0 
4.01609 3.97786 0.0 
4.03513 4.02548 0.0 
5.3262 4.0473 0.0 
5.05532 3.96524 0.0 
4.82106 3.9883 0.0 
4.19551 3.97637 0.0 
3.99623 4.03627 0.0 
4.03277 4.00935 0.0 
4.05133 4.02283 0.0 
4.99712 3.99532 0.0 
4.39148 5.27874 0.0 
4.1755 3.94311 0.0 
4.36691 4.08793 0.0 
4.0781 3.98964 0.0 
4.22361 4.04691 0.0 
4.42065 4.09013 0.0 
5.61751 3.88935 0.0 
9.77662 2.6685 0.0 
4.00652 4.03234 0.0 
4.23437 4.04707 0.0 
4.42014 4.08348 0.0 
4.02253 4.02917 0.0 
4.00427 4.04292 0.0 
4.28835 4.12979 0.0 
4.15022 3.96734 0.0 
3.98656 4.03719 0.0 
4.99643 3.98691 0.0 
3.99047 3.98781 0.0 
3.84711 3.84617 0.0 
4.04839 4.01492 0.0 
4.86678 3.9928 0.0 
4.11458 4.06637 0.0 
4.98996 3.97879 0.0 
5.29766 3.97245 0.0 
4.01253 4.07738 0.0 
1.07232 3.03194 0.0 
4.3994 3.99099 0.0 
4.23653 3.93784 0.0 
4.11143 3.95643 0.0 
4.10972 3.98804 0.0 
4.27968 3.89833 0.0 
4.8088 4.04703 0.0 
4.1401 3.98497 0.0 
4.02225 3.9806 0.0 
3.94346 3.99491 0.0 
4.04131 3.99766 0.0 
4.46101 4.11166 0.0 
5.03609 3.98885 0.0 
0.712024 5.21358 0.0 
3.9756 4.08504 0.0 
4.037 4.008 0.0 
4.06005 3.96532 0.0 
4.65335 4.03099 0.0 
4.04847 4.04817 0.0 
4.01118 3.98048 0.0 
3.94839 3.98159 0.0 
4.09658 4.01691 0.0 
4.51832 4.04332 0.0 
3.9514 4.04615 0.0 
4.80927 4.04945 0.0 
4.03373 4.01881 0.0 
4.1234 4.05313 0.0 
4.71346 3.93128 0.0 
4.17321 3.96528 0.0 
4.0241 4.0517 0.0 
4.03402 4.05512 0.0 
4.01068 3.99745 0.0 
4.02872 3.99494 0.0 
4.28459 4.11028 0.0 
4.40413 4.05425 0.0 
4.06711 3.9898 0.0 
5.02756 3.99069 0.0 
4.76577 3.95841 0.0 
4.88069 4.02166 0.0 
5.22787 3.96313 0.0 
4.21846 3.91954 0.0 
4.39411 4.1442 0.0 
4.12278 4.08789 0.0 
4.56303 3.97793 0.0 
4.07021 3.95517 0.0 
4.99222 3.99738 0.0 
5.85729 3.99551 0.0 
6.52723 6.42626 0.0 
4.11872 3.94508 0.0 
5.26757 4.00914 0.0 
4.25463 3.93166 0.0 
4.77228 3.9873 0.0 
4.72965 3.97246 0.0 
4.39635 3.90538 0.0 
4.00518 3.97325 0.0 
5.01982 4.03188 0.0 
4.09831 4.04977 0.0 
4.35454 4.08492 0.0 
4.17865 4.06587 0.0 
4.80593 4.0328 0.0 
4.1514 4.08276 0.0 
4.54857 3.97785 0.0 
4.07223 4.05588 0.0 
4.29335 3.99707 0.0 
3.95331 3.9694 0.0 
4.1316 4.07308 0.0 
4.12603 3.95528 0.0 
4.05163 3.99747 0.0 
4.78457 4.06251 0.0 
4.742 3.98613 0.0 
6.85608 0 0.0 
4.10768 3.96869 0.0 
4.06987 3.96362 0.0 
3.99891 4.05059 0.0 
4.2042 3.93118 0.0 
3.99154 4.0424 0.0 
3.98757 4.09729 0.0 
4.01671 4.01538 0.0 
3.94351 4.03157 0.0 
4.05033 4.00375 0.0 
4.03526 4.03042 0.0 
4.73399 4.04249 0.0 
4.03734 3.98999 0.0 
4.20672 4.05011 0.0 
3.98689 4.0502 0.0 
4.06315 4.0505 0.0 
4.04817 3.99065 0.0 
3.9746 4.03383 0.0 
4.45553 4.06484 0.0 
4.30616 3.94101 0.0 
4.02537 4.03096 0.0 
4.64067 3.98066 0.0 
4.21072 3.95506 0.0 
3.97752 4.04103 0.0 
4.43771 3.8822 0.0 
4.82678 4.05917 0.0 
3.99979 3.98858 0.0 
4.17675 4.04307 0.0 
0.811116 7.0622 0.0 
4.54189 4.06129 0.0 
4.06616 4.04081 0.0 
0 3.17328 0.0 
4.71962 4.04473 0.0 
4.0784 3.94608 0.0 
3.96685 4.01763 0.0 
4.25087 4.13604 0.0 
2.77957 3.1451 0.0 
4.06055 3.99199 0.0 
4.25169 4.06658 0.0 
3.99069 3.9699 0.0 
8.53208 4.64435 0.0 
3.99271 3.9642 0.0 
3.99956 3.96553 0.0 
4.67703 3.91027 0.0 
4.37258 4.09634 0.0 
7.22547 0.785332 0.0 
4.01563 3.96922 0.0 
4.2871 4.07454 0.0 
4.15641 3.95855 0.0 
4.54901 4.0759 0.0 
4.21802 3.99172 0.0 
4.23043 4.08769 0.0 
4.45786 3.97379 0.0 
3.88425 4.1519 0.0 
4.20202 3.94256 0.0 
4.00699 3.96684 0.0 
4.99961 3.96968 0.0 
4.07577 3.95908 0.0 
4.08713 4.0318 0.0 
4.14485 3.96809 0.0 
13.577 4.45538 0.0 
4.04289 3.99471 0.0 
4.45997 4.00096 0.0 
4.69638 3.95503 0.0 
10.5983 3.41251 0.0 
4.1553 3.97639 0.0 
4.38837 4.05607 0.0 
5.27852 3.96011 0.0 
4.18278 4.0463 0.0 
4.11605 3.91106 0.0 
4.28883 4.05928 0.0 
4.01141 3.95277 0.0 
4.76202 3.97712 0.0 
4.33907 3.96978 0.0 
[...]
<PointData>
  <DataArray type = "Float64" Name="Vitesse" NumberOfComponents="3" format="ascii">
1 0 0.0 
1.00903 0 0.0 
1.00679 0 0.0 
1 0 0.0 
0.989522 -0.311182 0.0 
0.0572003 0.000262679 0.0 
0.176732 -0.011427 0.0 
0.00625038 0.000111371 0.0 
0.948488 -0.311125 0.0 
0.842821 0.0365913 0.0 
0.0102896 -0.000809534 0.0 
0.990908 -0.322652 0.0 
0.312531 0.00264544 0.0 
0.523478 0.0193936 0.0 
0.22892 -0.00598396 0.0 
0.993421 0.000495376 0.0 
1.12293 0.0707975 0.0 
1.00847 0 0.0 
0.108649 -0.0114124 0.0 
0.000116371 -1.49769e-05 0.0 
2.1267e-17 -7.72673e-18 0.0 
1.00274 -0.00614195 0.0 
0 0 0.0 
1.00778 0.19701 0.0 
0.891288 -0.00322268 0.0 
0 0 0.0 
1.0163 -0.0050725 0.0 
0.983402 -0.191317 0.0 
0.175768 -0.00394315 0.0 
1.00953 -0.00038927 0.0 
0.82207 0.208889 0.0 
1.92691e-40 2.6287e-41 0.0 
0.0547064 -0.0091289 0.0 
0.883797 -0.223974 0.0 
0.0728223 0.0080708 0.0 
1.00457 0.034219 0.0 
0.947054 0.308005 0.0 
0 0 0.0 
0.132948 0.00603614 0.0 
0 0 0.0 
0.634036 -0.0506026 0.0 
0.838996 0.204942 0.0 
0.0448536 -0.00775846 0.0 
1.02023 -0.221766 0.0 
0.9374 0.241908 0.0 
0.12144 -0.00573362 0.0 
0.244437 0.0256866 0.0 
1.03541 -0.0637578 0.0 
1.00001 0.000278716 0.0 
0 0 0.0 
0.3011 0.0893176 0.0 
0.0535883 0.00301647 0.0 
0 0 0.0 
0.948918 -0.225394 0.0 
0.740094 0.0583594 0.0 
0.0257385 -0.00397605 0.0 
0.391033 0.211891 0.0 
0.157809 0.00101697 0.0 
0 0 0.0 
0.0472283 -0.00633146 0.0 
0.81618 0.36592 0.0 
0.905479 0.061364 0.0 
0.164143 0.00531069 0.0 
0.865633 -0.00192913 0.0 
0.934586 0.128675 0.0 
0.0755306 -0.0189238 0.0 
0.0127988 -0.00135086 0.0 
3.56322e-54 2.99468e-56 0.0 
0.56355 0.137138 0.0 
0.520505 -0.453503 0.0 
0.0318039 -0.00907278 0.0 
0.0115137 0.000485588 0.0 
0.814898 0.326158 0.0 
0.246002 0.0687843 0.0 
0.00292627 -0.000436728 0.0 
0.98001 0.0225422 0.0 
0.548864 0.0150193 0.0 
1.01003 0.0013179 0.0 
0.253474 0.00264039 0.0 
0.439131 -0.0335355 0.0 
1.04052 -0.238545 0.0 
1.24796e-43 -6.69307e-45 0.0 
0 0 0.0 
0.334979 -0.0106696 0.0 
0.0249911 -0.000423545 0.0 
0.650378 0.0940787 0.0 
1.00723 -2.75832e-05 0.0 
0.0939464 -0.0158562 0.0 
0.583639 -0.0373244 0.0 
0.585527 0.302786 0.0 
0.140948 -0.0137996 0.0 
0.974378 -0.227157 0.0 
0.853809 0.228093 0.0 
0.92267 -0.198004 0.0 
1.7094e-07 -2.09581e-08 0.0 
1.01147 0.0280743 0.0 
-1.72723e-117 1.22799e-118 0.0 
0.829198 0.0395431 0.0 
0.568572 0.0491548 0.0 
0.135455 0.00294176 0.0 
0.0325743 -0.0128231 0.0 
1.01631 -0.19558 0.0 
0.528908 -0.0138921 0.0 
0.920007 0.0486973 0.0 
0.0969626 -0.00186555 0.0 
0.704559 0.148168 0.0 
1.00479 -0.0870074 0.0 
0.961946 -0.000599732 0.0 
0.111955 0.0195898 0.0 
0.906009 0.0969903 0.0 
0 0 0.0 
0.014671 -0.00374653 0.0 
0.517811 0.174503 0.0 
1 0 0.0 
0.209693 0.018284 0.0 
0.607401 -0.189973 0.0 
0 0 0.0 
0.047367 0.00442953 0.0 
1.0196 -0.116227 0.0 
0.122533 -0.0142242 0.0 
0.0946071 0.00901374 0.0 
0.952016 -0.245179 0.0 
0.00686683 -0.000631776 0.0 
0.17682 0.000651971 0.0 
0 0 0.0 
0.471852 -0.437861 0.0 
0.366151 0.00350605 0.0 
0.00587623 -0.000849072 0.0 
0.467508 -0.0318066 0.0 
0.35623 0.0114986 0.0 
0.0839248 -0.0152794 0.0 
0.113345 0.0182581 0.0 
0.019938 -0.000741024 0.0 
0.127116 0.0109525 0.0 
0.502796 0.00981513 0.0 
0.304356 -0.00872549 0.0 
0.0645561 -0.0128262 0.0 
1e-307 1e-307 0.0 
0.0700385 -0.0186899 0.0 
0.706287 0.0905738 0.0 
0.201897 -0.0265106 0.0 
0 0 0.0 
1.00831 0 0.0 
0.144144 -0.0135329 0.0 
0.945043 0.13951 0.0 
-1.87149e-76 -1.92648e-77 0.0 
0.0741541 -0.0132411 0.0 
0.015039 0.000208093 0.0 
0.866512 -0.0953646 0.0 
0.598292 0.0126408 0.0 
0.298527 0.056724 0.0 
0.0413053 5.49645e-05 0.0 
0.13001 -0.0198565 0.0 
1.31552e-43 2.12839e-44 0.0 
0.475343 -0.0738859 0.0 
0 0 0.0 
0.654882 0.00824137 0.0 
0 0 0.0 
0.347319 0.000330059 0.0 
0.806144 0.0778694 0.0 
0 0 0.0 
0.882353 -0.202318 0.0 
0.945603 -0.0454045 0.0 
0.184141 0.0147899 0.0 
0.056802 0.00288841 0.0 
0.155146 0.0162039 0.0 
0.62077 0.0445909 0.0 
0.849005 0.000396666 0.0 
0.478746 -0.011049 0.0 
0.0283255 -0.00139093 0.0 
0.177645 0.0114903 0.0 
1.03674 0.12826 0.0 
0.0596066 -0.00167764 0.0 
1.01062 -0.000691693 0.0 
0.0760811 -0.0120744 0.0 
-6.04944e-84 -1.33655e-85 0.0 
0.138088 0.00351893 0.0 
0.564751 0.0400445 0.0 
0.721168 -0.042375 0.0 
0.998203 -0.119233 0.0 
0 0 0.0 
0.00567692 0.000406429 0.0 
1.0224 -0.171273 0.0 
0.224794 0.0147186 0.0 
-2.93338e-113 -1.90164e-114 0.0 
0.0138086 -0.000401151 0.0 
0.984229 0.00254826 0.0 
0.0170383 0.000703404 0.0 
0.646927 0.0727414 0.0 
0.817197 0.0992613 0.0 
0.257578 0.0221288 0.0 
0.736672 -0.000893597 0.0 
0.0466995 0.0015198 0.0 
0.0190507 0.00110448 0.0 
1.00818 -0.000407378 0.0 
0.027786 -0.00577177 0.0 
0.140447 -0.0149474 0.0 
0.955511 -0.000766499 0.0 
0.00792355 -0.00253158 0.0 
0.456349 -0.295563 0.0 
1.05024 0.231296 0.0 
0.204196 0.0241838 0.0 
0 0 0.0 
0 0 0.0 
1.00939 -0.000734919 0.0 
1.0023 -0.000825568 0.0 
0.999404 -0.00195067 0.0 
0.177245 0.00477297 0.0 
0.627805 0.359796 0.0 
0.650537 0.0238757 0.0 
0 0 0.0 
1.00903 -0.00016911 0.0 
1.04699 -0.021927 0.0 
0.210038 0.00336318 0.0 
1.00667 -0.134153 0.0 
0.879412 -0.120209 0.0 
1.00034 -0.0107816 0.0 
0.198658 -0.001596 0.0 
0.350381 -0.103231 0.0 
0.327237 -0.0089804 0.0 
0.298858 0.0166433 0.0 
0.413479 0.0249731 0.0 
0.403664 0.0305493 0.0 
0.0799759 -0.100985 0.0 
1.00705 0 0.0 
0.132798 -0.0176167 0.0 
0.192599 -0.0158301 0.0 
0.00689524 -0.000723274 0.0 
1.01159 0.000174671 0.0 
0.0416826 0.00500601 0.0 
0 0 0.0 
0.597392 0.34255 0.0 
0.885506 0.0127364 0.0 
0.0846516 -0.00634018 0.0 
0.781116 0.339394 0.0 
1.01011 -0.000281202 0.0 
1.00263 0 0.0 
0.134392 -0.0136627 0.0 
0 0 0.0 
0 0 0.0 
0.196687 -0.216766 0.0 
0.921964 0.323181 0.0 
0.33812 0.066646 0.0 
0.850307 0.316931 0.0 
0.932522 0.104682 0.0 
0.407127 0.0288719 0.0 
0.426629 0.0480119 0.0 
0.813694 -0.0191146 0.0 
1.08463 0.165611 0.0 
0.921242 -0.140341 0.0 
0 0 0.0 
0.631903 0.218294 0.0 
0.0188851 -0.000810429 0.0 
0.443943 0.00257364 0.0 
0.00123186 -0.000181658 0.0 
1.00849 0.000109396 0.0 
0.577053 -0.000213189 0.0 
0.637839 0.00505718 0.0 
0.228348 0.0121004 0.0 
0.288428 -0.00765438 0.0 
0.0507379 -0.0125886 0.0 
0.352384 0.0113221 0.0 
0.761474 -0.43314 0.0 
0.0446266 -0.00096419 0.0 
0.91867 0.0303445 0.0 
0 0 0.0 
0 0 0.0 
-1.3075e-231 -1.05955e-232 0.0 
0 0 0.0 
0 0 0.0 
0.00415262 -0.000546895 0.0 
0.294855 -0.0232444 0.0 
0.747386 0.354493 0.0 
1.00972 -0.00169434 0.0 
0.304553 -0.0102879 0.0 
0.000212417 2.4558e-05 0.0 
1.00937 9.60585e-07 0.0 
0.00303664 -0.000379324 0.0 
0.186597 0.0202353 0.0 
0.540837 -0.0111192 0.0 
1.00742 -8.20943e-05 0.0 
0.0792012 -0.0124054 0.0 
0.657456 -0.00646064 0.0 
0.845428 -0.368423 0.0 
0 0 0.0 
1.01044 -0.00552996 0.0 
1.05358 -0.176781 0.0 
1.00856 0.000757039 0.0 
0.754462 0.0929356 0.0 
0 0 0.0 
0.0503733 -0.00159894 0.0 
0.249947 0.0061559 0.0 
0.611981 0.322531 0.0 
0.012138 0.000723417 0.0 
0.604723 -0.277731 0.0 
0 0 0.0 
0.371407 -0.0206336 0.0 
0.338392 0.0291636 0.0 
0.0215466 0.0015649 0.0 
0 0 0.0 
0.675042 0.293676 0.0 
0 0 0.0 
0 0 0.0 
0.0433446 0.00698878 0.0 
1.02033 0.0126698 0.0 
0.670005 -0.0404277 0.0 
0.413922 0.00667774 0.0 
0 0 0.0 
0 0 0.0 
0.426752 -0.00220887 0.0 
0.893641 0.0176724 0.0 
1.00966 0.000111549 0.0 
0.663228 0.372817 0.0 
0 0 0.0 
0.297569 -0.00390935 0.0 
0.402664 0.206261 0.0 
0.74169 0.328667 0.0 
1.09846 0.0962205 0.0 
0.027203 -0.00156705 0.0 
0.67785 0.223214 0.0 
0.121059 0.0139468 0.0 
0.541259 -0.342246 0.0 
0.939636 -0.0631704 0.0 
0 0 0.0 
0.000121011 1.64942e-06 0.0 
0.664473 0.14226 0.0 
0.192613 0.0148358 0.0 
0.381223 0.0181595 0.0 
0.877785 0.261546 0.0 
0.999581 -0.000847563 0.0 
0 0 0.0 
0.664616 -0.0220069 0.0 
0.504753 -0.0510854 0.0 
0 0 0.0 
1.06219 -0.0497248 0.0 
0.0888517 -0.00973344 0.0 
0 0 0.0 
0.208149 -0.0814741 0.0 
0.749199 -0.0519214 0.0 
0 0 0.0 
0.776562 0.00185754 0.0 
0.132263 0.0174031 0.0 
0.999908 0.000973893 0.0 
0.849051 0.17613 0.0 
0 0 0.0 
0.511997 -0.0968863 0.0 
0 0 0.0 
0.722422 0.260055 0.0 
0.590966 -0.321058 0.0 
0.757158 -0.0977177 0.0 
0 0 0.0 
0 0 0.0 
0.77145 0.100546 0.0 
0.106939 -0.0113731 0.0 
0 0 0.0 
0.0616329 0.00641922 0.0 
0.603806 0.0166137 0.0 
0.0660639 5.89484e-05 0.0 
0.851053 0.354824 0.0 
0.885799 0.345945 0.0 
0 0 0.0 
0 0 0.0 
0.95795 0.0792269 0.0 
0 0 0.0 
0 0 0.0 
0.112371 0.0162082 0.0 
0.307381 0.0122464 0.0 
0.00186003 -0.00021913 0.0 
0.419384 0.0233965 0.0 
0.983946 -0.0598858 0.0 
1.0988 0.0462286 0.0 
1.02152 0.222639 0.0 
0.00664504 0.000875322 0.0 
0.811719 -0.151586 0.0 
0.0150491 0.00116359 0.0 
0.464143 0.00217462 0.0 
1.01115 -0.00125139 0.0 
0.814487 -0.0933816 0.0 
0.226685 0.000290575 0.0 
0.756746 -0.0250008 0.0 
0.0101855 0.00104942 0.0 
0.140357 0.00661065 0.0 
0.95185 -0.0142826 0.0 
0.815514 -0.434572 0.0 
0.113202 -0.0226445 0.0 
0.12595 0.0230086 0.0 
0.357911 0.00637511 0.0 
0.210267 0.025168 0.0 
0.00321735 -0.000617144 0.0 
0.869415 0.158604 0.0 
2.69213e-05 3.01215e-06 0.0 
0.706006 0.209166 0.0 
0 0 0.0 
0.778115 -0.134949 0.0 
0.743848 0.148517 0.0 
0.478397 -0.0394235 0.0 
0 0 0.0 
0.202265 -0.018217 0.0 
0.00765705 0.000811171 0.0 
1.00876 0 0.0 
0.0464382 -0.000686145 0.0 
0.491925 -0.0808431 0.0 
0.766547 0.280535 0.0 
0.850214 -0.0495675 0.0 
0.711051 0.254292 0.0 
0.87852 0.190124 0.0 
0 0 0.0 
0.759764 0.0554398 0.0 
0 0 0.0 
0.0883808 0.0346199 0.0 
0.00774894 -0.000658208 0.0 
0 0 0.0 
0 0 0.0 
0.749158 0.225511 0.0 
0.622437 0.195331 0.0 
0 0 0.0 
0.680649 0.149016 0.0 
1.10853e-42 2.23328e-44 0.0 
0.527886 -0.00366318 0.0 
0.422013 0.204176 0.0 
0.0138849 0.000967282 0.0 
0.299849 -0.00499745 0.0 
0.709304 0.177433 0.0 
1.05116 -0.0161407 0.0 
0.198215 -0.0187639 0.0 
0.462877 -0.436388 0.0 
0 0 0.0 
1.00025 0.000629508 0.0 
0.00951032 -0.000587906 0.0 
0.0997191 0.0249249 0.0 
1 0 0.0 
0.0116239 -0.00138355 0.0 
0.971709 -0.178161 0.0 
0.649729 0.0494282 0.0 
1.12083 0.121784 0.0 
0.996063 -0.00667592 0.0 
0 0 0.0 
1.85469e-08 7.43654e-10 0.0 
0.763179 -0.328026 0.0 
1.00919 -0.00190184 0.0 
0.808116 -0.320793 0.0 
0.833058 -0.364194 0.0 
0.814945 0.0143458 0.0 
0.584822 0.013427 0.0 
1.00898 0.000163505 0.0 
0.88159 -0.390017 0.0 
0.180029 0.00980331 0.0 
0.284531 -0.0143471 0.0 
0.206773 -0.0113301 0.0 
0 0 0.0 
0.672863 0.0688727 0.0 
0.000611221 3.26049e-05 0.0 
0.918286 0.0789938 0.0 
0.621293 -0.0278671 0.0 
0.871804 -0.399526 0.0 
0.282577 0.0224654 0.0 
0.633075 -0.102573 0.0 
0 0 0.0 
4.39356e-06 6.16045e-08 0.0 
1.01151 -0.00197008 0.0 
0 0 0.0 
0 0 0.0 
0.324207 0.0118793 0.0 
1.0101 -0.000451704 0.0 
1e-307 0 0.0 
0 0 0.0 
0.459123 0.0230525 0.0 
0 0 0.0 
1.09495 -0.151482 0.0 
0 0 0.0 
0.934439 -0.329087 0.0 
0.106016 0.00494302 0.0 
0.00589041 0.0006935 0.0 
0.189682 -0.016178 0.0 
1.00786 -0.000274813 0.0 
0 0 0.0 
0.994014 0.0597839 0.0 
0.137846 0.00301476 0.0 
0.259856 0.0228031 0.0 
0 0 0.0 
0.763456 0.0802419 0.0 
0.014803 -0.000541968 0.0 
0.680609 -0.0792246 0.0 
0.288234 -0.014944 0.0 
1.00499 -0.0478908 0.0 
0.00695056 0.00211835 0.0 
0 0 0.0 
0.506363 0.0762713 0.0 
0 0 0.0 
0.0261827 -0.00259198 0.0 
0.719848 0.127833 0.0 
-4.39908e-76 -2.04787e-77 0.0 
0.874875 0.337459 0.0 
0.00903714 0.000775623 0.0 
0.774305 0.123739 0.0 
0 0 0.0 
0.424237 0.0126189 0.0 
0.0901851 0.00248875 0.0 
0.678363 0.0613183 0.0 
0.938529 0.291138 0.0 
0.819149 0.0940283 0.0 
0.0237453 0.0011622 0.0 
0.743546 0.110669 0.0 
0.914102 0.330319 0.0 
0.886023 0.322142 0.0 
0.91859 -0.0228485 0.0 
0 0 0.0 
0 0 0.0 
0.877271 0.347556 0.0 
0.976208 0.0106499 0.0 
0.898934 -0.115511 0.0 
1.08133e-05 -6.85736e-06 0.0 
0.253132 0.0302991 0.0 
0.0515487 0.00213554 0.0 
0 0 0.0 
0.229596 0.0037989 0.0 
1.03674 0.0513062 0.0 
0 0 0.0 
0.639002 0.0531445 0.0 
0.195535 0.0101522 0.0 
0.661333 -0.0514045 0.0 
0.125205 -0.0179699 0.0 
0 0 0.0 
0.365445 -0.0324404 0.0 
0.0165629 0.000978517 0.0 
0.885277 -0.0302973 0.0 
0.128066 -0.00451124 0.0 
1.00139 0.00298957 0.0 
0.971561 -4.29042e-05 0.0 
0.320467 -0.000313435 0.0 
0.651771 0.303972 0.0 
0.00585637 -0.000900964 0.0 
0.92882 0.30773 0.0 
1.00939 -0.000462011 0.0 
1.05892 0.151807 0.0 
0.482905 -0.0215641 0.0 
0.254754 0.00564127 0.0 
0.122985 -0.00522453 0.0 
1.35298e-09 -1.17578e-10 0.0 
1.00692 0 0.0 
0.350183 -0.00824729 0.0 
0.504151 0.00100126 0.0 
1.01143 -0.071954 0.0 
0.032349 -0.000608935 0.0 
1.01785 0.274346 0.0 
0.145307 0.00769781 0.0 
1.07931 -0.00103041 0.0 
0.85315 0.274645 0.0 
5.3949e-06 -4.97184e-07 0.0 
0.249884 -0.0029245 0.0 
0.232041 0.00190555 0.0 
1.00162 -0.00547973 0.0 
0.984308 -0.0467648 0.0 
4.98829e-07 -9.59275e-09 0.0 
0.261455 0.0141816 0.0 
0.34377 0.061583 0.0 
1.00103 0.00320404 0.0 
0.0216727 0.000152403 0.0 
0.733089 0.00440443 0.0 
0.0298533 0.000246615 0.0 
0.889254 -0.207948 0.0 
0 0 0.0 
0.0226581 0.00054534 0.0 
0.667888 -0.123207 0.0 
1.0007 -0.00118643 0.0 
0.968454 -0.0471107 0.0 
0.847859 0.339005 0.0 
0.998381 -0.239772 0.0 
0.00741593 0.00023667 0.0 
0.919255 0.275167 0.0 
0.867218 0.281519 0.0 
0.889529 -0.174372 0.0 
1.03413 0.13721 0.0 
0.937227 -0.0343361 0.0 
0 0 0.0 
0.976468 -0.129845 0.0 
0.99963 -0.000246019 0.0 
1.03116 -0.0273757 0.0 
0.90269 0.337681 0.0 
0.0674497 -0.00482724 0.0 
0.988072 0.00251715 0.0 
0.276336 -0.00457731 0.0 
0.462912 0.0693055 0.0 
1.01566 0.00614008 0.0 
0 0 0.0 
1.00819 -0.00029353 0.0 
1.00845 0.072371 0.0 
-1.15968e-111 6.11779e-113 0.0 
0.821073 0.302924 0.0 
0.95347 -0.205008 0.0 
0.629978 0.119317 0.0 
0.539091 -0.00139778 0.0 
0.0306422 0.00286575 0.0 
1.00836 0.27892 0.0 
0.807372 -0.0709537 0.0 
0 0 0.0 
1.0088 0 0.0 
0.00410932 -0.000517237 0.0 
1.00946 -0.000157169 0.0 
0.000215301 1.3091e-05 0.0 
0.00490623 -0.000493356 0.0 
0.060991 0.00824905 0.0 
0.374308 -0.00212834 0.0 
0.00514992 0.000581813 0.0 
1.08541 0.0525575 0.0 
1.01514 0.0122523 0.0 
1.0074 0 0.0 
0.0592768 -0.00681672 0.0 
0.0024188 -0.00018736 0.0 
0 0 0.0 
0.901423 0.211626 0.0 
0.61806 0.000723424 0.0 
1.00035 0.000418366 0.0 
0.633397 0.0764798 0.0 
0 0 0.0 
0.00866888 0.00070517 0.0 
0.108242 -0.0567647 0.0 
0.975522 -0.0867917 0.0 
0.596814 0.000867207 0.0 
1.00757 0 0.0 
1.00598 0.267575 0.0 
1.07482 0.14437 0.0 
0.96096 0.287842 0.0 
0.586921 -0.123945 0.0 
0.835919 0.258801 0.0 
0 0 0.0 
0.541743 -0.0490599 0.0 
1.02131 -0.148325 0.0 
0.663483 -0.0638975 0.0 
0.867444 -0.18703 0.0 
1.01436 0.255776 0.0 
0 0 0.0 
0.970375 -0.0664527 0.0 
0.95122 0.0453698 0.0 
0.101801 0.00557421 0.0 
0.0113298 0.000871085 0.0 
0.55469 -0.0989961 0.0 
0.6795 0.000211246 0.0 
0.703537 -0.0579659 0.0 
0.0021639 -0.000405636 0.0 
0.784643 0.260243 0.0 
0.00435613 0.000243488 0.0 
1 0 0.0 
0.0833144 0.00952601 0.0 
0.656415 -0.00176226 0.0 
0 0 0.0 
1.0508 -0.0122198 0.0 
0.0023876 -0.000424442 0.0 
1.1135 0.0571692 0.0 
0.20038 0.00472601 0.0 
0.923289 0.256372 0.0 
0.402356 0.173518 0.0 
1.01026 -0.00265606 0.0 
0.978965 -0.0143374 0.0 
1.01024 0.000978341 0.0 
0.880212 0.096571 0.0 
0.995194 -0.00136378 0.0 
0 0 0.0 
0 0 0.0 
1.01713 0.148589 0.0 
1.00892 0 0.0 
0 0 0.0 
0 0 0.0 
0.804812 0.0016314 0.0 
0.0160156 -0.00036395 0.0 
3.54568e-43 3.74488e-44 0.0 
0.652948 -0.0180891 0.0 
0.268178 0.0246656 0.0 
0.550494 -0.0080582 0.0 
0 0 0.0 
0.572702 0.0984844 0.0 
0.382939 0.0447344 0.0 
0 0 0.0 
0.139306 -0.00868617 0.0 
0.137786 -0.0803612 0.0 
0.00803328 0.000556486 0.0 
0.885097 0.0569812 0.0 
1.00765 0.240653 0.0 
0.926348 0.157939 0.0 
0.107189 0.00568265 0.0 
0.183293 0.0106376 0.0 
0.970794 0.163888 0.0 
0.379028 0.0271864 0.0 
0 0 0.0 
0 0 0.0 
0.83135 -0.0381354 0.0 
0 0 0.0 
0.892281 0.117697 0.0 
0.897522 0.187899 0.0 
1.00003 0.000410266 0.0 
1.10706 0.142479 0.0 
0.0574083 -0.00802098 0.0 
0.791444 0.167777 0.0 
0.0179368 0.00110232 0.0 
0.014465 0.000658814 0.0 
2.68024e-41 -3.0644e-42 0.0 
0.372024 -0.0271287 0.0 
1.03153 -0.249639 0.0 
0 0 0.0 
1.67967e-06 -3.13662e-07 0.0 
0.930643 0.0957619 0.0 
0 0 0.0 
0.493708 -0.0380664 0.0 
0.512472 -0.0224657 0.0 
0 0 0.0 
0.428979 -0.0153912 0.0 
0 0 0.0 
0.862761 0.0111993 0.0 
1.01587 -0.00337741 0.0 
0.059429 0.00284706 0.0 
0.0170968 0.000423354 0.0 
-5.39231e-90 3.41778e-90 0.0 
1.06813 -0.146955 0.0 
0.954685 -0.0427825 0.0 
1.00082 0.006948 0.0 
0.977167 -0.128565 0.0 
0 0 0.0 
0.998427 0.000347268 0.0 
0.907119 0.191737 0.0 
0.10041 -0.00796737 0.0 
0.0363408 -0.00261123 0.0 
0.156362 0.0071037 0.0 
1.01033 -0.00103337 0.0 
0.341417 -0.0113063 0.0 
0.901676 0.106568 0.0 
1.06666 -0.0344844 0.0 
0.504704 0.040654 0.0 
2.27867e-05 -4.07404e-06 0.0 
0 0 0.0 
0.862607 -0.134811 0.0 
1 0 0.0 
0.789377 -0.0929953 0.0 
0.663327 -0.00113644 0.0 
0.261689 -0.000397858 0.0 
0.76564 -0.0198899 0.0 
0.996874 -0.000969758 0.0 
0 0 0.0 
0.472198 0.0025202 0.0 
0 0 0.0 
1.0907 -0.146487 0.0 
0.815263 -0.0916745 0.0 
0 0 0.0 
0 0 0.0 
0.552236 0.0026165 0.0 
0.981367 -0.10707 0.0 
0.00898156 -0.000566563 0.0 
0.00462661 -0.00110958 0.0 
0.0388623 0.00162371 0.0 
1.00013 0.0242124 0.0 
0.00694826 -0.000440906 0.0 
0.292955 -0.0347814 0.0 
0.737372 0.0647364 0.0 
0.0371818 -0.00507422 0.0 
0.0667011 0.00309372 0.0 
1.08374 0.190793 0.0 
0.495876 -0.205086 0.0 
1.01131 -0.00145802 0.0 
0.159028 0.00850775 0.0 
0.539301 0.00810809 0.0 
0 0 0.0 
1.0094 -0.286781 0.0 
0.0932367 -0.16215 0.0 
0 0 0.0 
0.843571 -0.145405 0.0 
0.0245371 -0.00134877 0.0 
0 0 0.0 
0.696713 0.10845 0.0 
0 0 0.0 
1.00981 -0.000413654 0.0 
1.05096 0.217642 0.0 
0.208721 -0.00343069 0.0 
0.976854 -0.339566 0.0 
0.259481 0.0441071 0.0 
0.596705 0.00340659 0.0 
1.0105 -0.000959921 0.0 
0 0 0.0 
0 0 0.0 
1.47018e-234 -6.10691e-236 0.0 
0.738647 -0.230839 0.0 
1.00224 0.0082569 0.0 
0.699992 0.0163187 0.0 
0.271291 -0.075309 0.0 
1.0011 0.00236954 0.0 
0.770231 -0.218107 0.0 
0.0080051 0.000584522 0.0 
0 0 0.0 
1.0943e-08 -6.11466e-10 0.0 
0.0256815 -0.0134292 0.0 
0.969574 0.203147 0.0 
0.982657 -0.0573149 0.0 
1.12475 0.0557295 0.0 
0.932052 -0.0581859 0.0 
1.00914 -0.000794377 0.0 
0.315026 -0.0196542 0.0 
2.48925e-46 -3.97482e-47 0.0 
0.893493 0.0777855 0.0 
0.126428 0.00661695 0.0 
1.0094 0.000545235 0.0 
0 0 0.0 
0.381634 -0.00118309 0.0 
1.00946 -0.000386015 0.0 
0.885496 0.235326 0.0 
0 0 0.0 
0.445938 0.0482046 0.0 
0.0216902 0.000727302 0.0 
1.23736e-69 2.77567e-70 0.0 
0 0 0.0 
0.903951 -0.244679 0.0 
0.245682 -0.258474 0.0 
0 0 0.0 
0 0 0.0 
0.0271708 -0.00713316 0.0 
1.0682 -0.178041 0.0 
3.02371e-05 -3.29911e-06 0.0 
0.272039 -0.000910288 0.0 
0.830387 -0.255728 0.0 
0.00963304 0.000343975 0.0 
0.00919879 -0.00113378 0.0 
0.999979 0.000236362 0.0 
0 0 0.0 
0.108292 0.0118344 0.0 
0.107923 -0.00476441 0.0 
0.00221102 -0.000329606 0.0 
0.783684 0.185421 0.0 
1.00083 -0.0326517 0.0 
1.00001 5.02891e-05 0.0 
0.00507165 0.00039477 0.0 
0.921714 -0.338517 0.0 
0 0 0.0 
0.0465452 -0.00884901 0.0 
0.473 0.0479458 0.0 
0.0122646 -0.00785894 0.0 
2.43576e-07 -1.01129e-08 0.0 
0.0178814 -0.000361057 0.0 
0.317214 -0.00113883 0.0 
0.799701 0.138814 0.0 
0.237858 -0.007373 0.0 
1.00966 0.000752042 0.0 
1.03631e-07 -2.92633e-09 0.0 
0 0 0.0 
1.01991 0.233517 0.0 
0.617231 -0.150945 0.0 
0.0612652 0.0170111 0.0 
0.932771 -0.366685 0.0 
1.11721 0.0237329 0.0 
0.952713 -0.00387076 0.0 
0.383392 0.0364655 0.0 
0.79931 -0.000377633 0.0 
0.517896 0.0730376 0.0 
0.990747 0.0087908 0.0 
0.00628895 -0.000124335 0.0 
0 0 0.0 
0.521197 -0.304689 0.0 
0.604728 0.0255059 0.0 
0.790068 0.0570658 0.0 
0.0072955 -0.000855783 0.0 
0 0 0.0 
1.00916 -0.000360827 0.0 
0.965197 -0.031906 0.0 
1.01825 0.214738 0.0 
0.00731437 -0.000737045 0.0 
1.0097 -0.000680559 0.0 
0.519298 0.132498 0.0 
0.791554 -0.00339209 0.0 
0.965186 -0.297015 0.0 
1.00952 0 0.0 
0.698098 0.0457092 0.0 
0.155241 0.0525823 0.0 
0.762766 -0.00188109 0.0 
0.349109 0.071366 0.0 
0.103889 0.00474518 0.0 
0.0153944 -0.00176498 0.0 
0 0 0.0 
1.04542 0.250225 0.0 
0.32607 0.0249823 0.0 
1.00089 -0.00428528 0.0 
0 0 0.0 
0.130251 -0.00871844 0.0 
0 0 0.0 
0.0169399 -0.0018301 0.0 
0 0 0.0 
0 0 0.0 
0 0 0.0 
1.2737e-08 -1.05475e-09 0.0 
0 0 0.0 
0.801601 -0.204167 0.0 
1 0 0.0 
1.04692 -0.0381135 0.0 
0.0102938 0.000792583 0.0 
0.964112 0.0102384 0.0 