<VTKFile type="UnstructuredGrid" version="0.1" byte_order="LittleEndian">
  <UnstructuredGrid>
    <Piece NumberOfPoints="14187" NumberOfCells="28222">
      <Points>
        <DataArray type = "Float64" NumberOfComponents="3" format="ascii">
0 0 0.0 
14 0 0.0 
14 8 0.0 
0 8 0.0 
5.36879 4.15367 0.0 
4.7112 4.00424 0.0 
5.15553 4.02606 0.0 
5.02888 3.97645 0.0 
4.84592 3.98275 0.0 
4.70997 3.95731 0.0 
4.15731 3.95386 0.0 
4.6932 4.07079 0.0 
5.03468 4.02948 0.0 
4.7223 4.00293 0.0 
4.57275 4.06362 0.0 
5.00775 3.98134 0.0 
4.18705 4.08315 0.0 
4.26625 4.07187 0.0 
4.09042 4.02486 0.0 
4.65295 4.06077 0.0 
4.50172 3.98951 0.0 
4.95282 3.99798 0.0 
4.36342 3.97057 0.0 
8.40909 0 0.0 
4.09868 4.04865 0.0 
4.97506 4.01011 0.0 
4.67863 4.03737 0.0 
4.69289 4.05287 0.0 
4.64107 4.07468 0.0 
4.54518 4.08235 0.0 
4.80381 4.0198 0.0 
4.53881 4.04727 0.0 
4.49719 3.96841 0.0 
4.48512 4.07584 0.0 
4.44359 4.04883 0.0 
4.01348 3.9482 0.0 
4.06288 4.03688 0.0 
3.7164 4.02987 0.0 
4.54381 3.9542 0.0 
4.69997 4.06131 0.0 
5.08606 3.99136 0.0 
4.00249 4.02948 0.0 
4.6017 3.97452 0.0 
4.47751 4.14554 0.0 
4.52548 3.86228 0.0 
4.63206 4.06671 0.0 
4.32284 4.06993 0.0 
3.23709 0 0.0 
4.09422 4.06655 0.0 
4.9762 3.97993 0.0 
4.4053 3.95331 0.0 
4.07877 3.96883 0.0 
4.76808 4.01499 0.0 
4.18875 3.93918 0.0 
4.51194 4.04817 0.0 
4.13005 4.05697 0.0 
4.42265 3.98976 0.0 
4.64458 3.95384 0.0 
4.48157 3.94456 0.0 
4.98136 4.01717 0.0 
4.5024 3.96132 0.0 
4.05789 4.06544 0.0 
4.10075 4.03591 0.0 
4.52044 3.993 0.0 
4.49866 3.99528 0.0 
4.99515 4.03044 0.0 
4.92681 4.01708 0.0 
4.61955 4.05723 0.0 
4.09973 4.06883 0.0 
4.33112 3.95572 0.0 
4.0631 3.94627 0.0 
4.08533 3.93896 0.0 
4.09324 4.07263 0.0 
4.48463 4.0392 0.0 
4.347 3.96293 0.0 
4.51059 3.96639 0.0 
4.92034 4.02503 0.0 
4.50667 3.96198 0.0 
3.99672 4.00184 0.0 
4.94028 4.00404 0.0 
4.06915 4.04534 0.0 
5.01575 3.97372 0.0 
5.69327 4.21785 0.0 
4.8716 4.04159 0.0 
4.08538 4.02507 0.0 
4.12721 3.98293 0.0 
6.13847 3.84237 0.0 
6.15455 3.91783 0.0 
3.99368 4.01426 0.0 
4.49298 3.97577 0.0 
4.04324 4.03223 0.0 
4.14408 3.98765 0.0 
5.14202 4.01472 0.0 
4.18182 4.06299 0.0 
4.28725 4.07413 0.0 
4.85521 4.04332 0.0 
4.68631 3.99641 0.0 
6.55982 4.81186 0.0 
4.89333 3.99394 0.0 
5.00489 4.02516 0.0 
4.5596 3.96913 0.0 
4.48341 4.0268 0.0 
4.69958 4.0033 0.0 
4.09424 4.05815 0.0 
4.95014 4.02252 0.0 
3.99988 3.98708 0.0 
4.46311 3.96939 0.0 
4.21788 3.91237 0.0 
4.37769 4.04805 0.0 
5.60358 4.17126 0.0 
4.39419 4.06931 0.0 
4.90298 3.97637 0.0 
4.54948 4.07028 0.0 
4.19688 3.96669 0.0 
4.64644 4.05988 0.0 
4.87677 3.98104 0.0 
4.48339 4.06288 0.0 
4.03237 3.98544 0.0 
5.81413 3.96531 0.0 
4.18946 3.96773 0.0 
4.84678 4.00835 0.0 
4.72304 4.04659 0.0 
5.01663 4.00272 0.0 
3.99136 4.00099 0.0 
4.71027 4.04558 0.0 
4.84325 4.00875 0.0 
4.42529 4.05205 0.0 
3.96539 4.23562 0.0 
4.42299 4.04689 0.0 
4.64087 3.97125 0.0 
4.29452 4.06699 0.0 
4.432 4.04803 0.0 
5.07334 3.98498 0.0 
4.36223 3.96614 0.0 
4.76967 4.0485 0.0 
4.17786 4.07881 0.0 
4.85295 4.03748 0.0 
4.66392 3.97713 0.0 
5.05166 3.98934 0.0 
4.1628 3.94775 0.0 
6.08255 3.99563 0.0 
5.09798 4.0273 0.0 
4.98216 4.00169 0.0 
4.08831 4.06631 0.0 
4.43585 4.0038 0.0 
4.63894 3.96651 0.0 
4.82927 4.01105 0.0 
4.98031 4.02026 0.0 
4.41792 4.13014 0.0 
4.96925 4.01607 0.0 
4.92917 4.02949 0.0 
4.85005 4.04582 0.0 
4.31978 3.95169 0.0 
4.49074 4.05165 0.0 
4.26067 3.96692 0.0 
4.59402 4.05598 0.0 
4.46067 4.08159 0.0 
4.40235 4.12784 0.0 
4.52576 4.0968 0.0 
4.87337 4.04769 0.0 
4.4792 3.98501 0.0 
4.51039 4.08178 0.0 
3.97234 4.03785 0.0 
5.1636 4.01217 0.0 
4.71901 3.9786 0.0 
4.69908 4.04855 0.0 
4.18416 3.91428 0.0 
5.00576 3.98835 0.0 
4.4074 4.07684 0.0 
4.69376 3.97446 0.0 
4.17071 3.92446 0.0 
5.02701 4.0199 0.0 
4.96401 4.0142 0.0 
4.98971 4.00888 0.0 
4.04023 3.98111 0.0 
4.83366 4.04988 0.0 
4.99603 3.97729 0.0 
4.30136 4.08065 0.0 
4.0176 3.98556 0.0 
4.4418 4.07991 0.0 
3.96103 3.91094 0.0 
4.94573 4.02534 0.0 
5.40475 3.84778 0.0 
4.05664 3.81012 0.0 
4.39865 4.07858 0.0 
4.95309 4.03889 0.0 
4.0089 3.92893 0.0 
5.07819 4.0105 0.0 
4.3162 4.0641 0.0 
4.01131 4.00199 0.0 
4.93427 4.02782 0.0 
4.24915 4.05618 0.0 
4.77514 3.98651 0.0 
4.46933 4.09883 0.0 
4.86277 4.01565 0.0 
5.1153 3.98699 0.0 
4.89853 4.02093 0.0 
5.65066 4.04919 0.0 
4.14376 3.94805 0.0 
4.26735 4.03929 0.0 
0 2.35315 0.0 
3.99828 4.06973 0.0 
5.38849 3.9408 0.0 
5.07235 3.99531 0.0 
5.04611 4.02286 0.0 
4.89218 4.01722 0.0 
4.84396 4.01787 0.0 
4.98997 4.02393 0.0 
4.7073 4.03432 0.0 
4.49635 3.95726 0.0 
5.01943 4.02273 0.0 
3.96199 4.03038 0.0 
5.04864 4.04382 0.0 
4.17504 4.0614 0.0 
5.10148 4.03954 0.0 
4.9912 4.02807 0.0 
4.30898 4.07222 0.0 
4.06005 4.03579 0.0 
13.7315 3.39857 0.0 
4.39934 4.08404 0.0 
4.43184 4.08715 0.0 
4.43555 3.97448 0.0 
4.88438 4.03747 0.0 
4.01963 3.92739 0.0 
4.07679 3.98202 0.0 
4.81237 3.97593 0.0 
4.20756 4.06492 0.0 
4.01778 3.97712 0.0 
4.69671 3.98501 0.0 
4.90736 3.98625 0.0 
4.89109 3.98723 0.0 
4.18816 4.09458 0.0 
4.89554 4.02846 0.0 
4.40612 4.07238 0.0 
4.55937 3.97793 0.0 
5.05402 4.03163 0.0 
4.03056 4.00348 0.0 
5.03851 4.01862 0.0 
4.21607 3.90424 0.0 
5.09724 4.01669 0.0 
4.05849 3.97476 0.0 
4.71389 4.03186 0.0 
4.11728 4.04788 0.0 
4.6339 3.96597 0.0 
4.11892 4.05003 0.0 
4.77378 4.00732 0.0 
5.03247 3.98295 0.0 
4.213 4.06906 0.0 
4.90226 4.03143 0.0 
4.95093 3.99698 0.0 
5.0636 3.98872 0.0 
4.82272 4.00594 0.0 
4.8415 4.032 0.0 
3.98273 4.00621 0.0 
4.25553 3.96677 0.0 
4.50097 4.04803 0.0 
4.23412 4.06925 0.0 
4.19419 3.96359 0.0 
4.98107 3.97981 0.0 
4.62321 4.05006 0.0 
4.09176 4.05182 0.0 
4.07917 3.97615 0.0 
5.10865 4.0171 0.0 
5.03617 4.00712 0.0 
4.0703 3.97516 0.0 
4.98218 4.02738 0.0 
4.95952 3.98974 0.0 
4.29249 4.04822 0.0 
5.03773 3.97699 0.0 
3.95046 4.00001 0.0 
4.27399 4.08827 0.0 
4.87064 4.00055 0.0 
4.1176 3.96626 0.0 
3.95004 3.97529 0.0 
4.10323 3.94929 0.0 
4.03198 4.02935 0.0 
4.63516 4.07929 0.0 
5.15402 3.98655 0.0 
4.61611 4.06119 0.0 
4.52881 3.9725 0.0 
4.70716 3.98321 0.0 
4.38993 3.96928 0.0 
4.24873 3.98504 0.0 
4.66183 3.95883 0.0 
4.51279 3.98554 0.0 
4.83392 3.98124 0.0 
4.08252 3.92868 0.0 
3.99448 4.02842 0.0 
5.47706 4.12812 0.0 
3.93273 4.27584 0.0 
4.75711 4.05214 0.0 
5.03664 3.96229 0.0 
4.07375 3.93329 0.0 
4.89678 4.00895 0.0 
4.22701 3.96784 0.0 
4.79207 4.01477 0.0 
4.98463 4.01475 0.0 
4.88474 4.04745 0.0 
4.39306 4.07039 0.0 
5.00134 4.00081 0.0 
4.28017 4.06852 0.0 
4.01925 4.05221 0.0 
4.06409 3.99465 0.0 
5.00388 4.02124 0.0 
4.86175 4.00124 0.0 
4.08048 3.99521 0.0 
4.20447 4.06369 0.0 
5.01224 3.97834 0.0 
3.89105 4.04883 0.0 
4.38729 4.06993 0.0 
4.02874 4.02056 0.0 
4.89981 4.00991 0.0 
3.9731 4.09746 0.0 
4.71406 3.97519 0.0 
4.86352 4.02545 0.0 
4.55972 4.05072 0.0 
4.78276 3.99689 0.0 
4.98317 3.98354 0.0 
4.84539 4.04074 0.0 
4.81038 4.00082 0.0 
4.83359 4.14694 0.0 
4.59526 3.96295 0.0 
4.56603 4.00021 0.0 
4.94422 4.00321 0.0 
6.36322 4.63283 0.0 
4.40221 3.88483 0.0 
4.10326 3.97038 0.0 
4.37282 4.06594 0.0 
4.76186 4.05781 0.0 
4.26328 4.06971 0.0 
11.5596 3.82428 0.0 
8.24889 1.81573 0.0 
4.37486 4.06944 0.0 
4.72425 4.05263 0.0 
4.28115 4.08293 0.0 
4.25325 4.08014 0.0 
6.27664 3.69322 0.0 
4.09997 3.93532 0.0 
4.15841 3.97197 0.0 
4.98174 4.03773 0.0 
4.50661 4.06104 0.0 
4.12848 3.96588 0.0 
4.12351 3.96466 0.0 
4.78582 3.99909 0.0 
4.74051 3.98438 0.0 
3.99002 4.07043 0.0 
4.00273 4.05728 0.0 
4.7832 4.00815 0.0 
4.47628 4.0574 0.0 
4.00975 4.04675 0.0 
4.83493 4.02828 0.0 
5.11748 4.03535 0.0 
2.67239 0 0.0 
4.52741 3.96538 0.0 
4.01529 4.02088 0.0 
4.04371 4.02248 0.0 
4.43463 4.07635 0.0 
4.44856 4.06798 0.0 
4.31974 4.09012 0.0 
4.51738 3.95904 0.0 
4.03695 4.06573 0.0 
4.6791 4.05209 0.0 
5.7054 3.82302 0.0 
4.7796 4.04344 0.0 
4.62564 4.05844 0.0 
4.75016 4.04893 0.0 
4.85693 3.98726 0.0 
4.68622 4.05505 0.0 
4.23233 4.101 0.0 
4.4375 4.07429 0.0 
4.83757 4.01681 0.0 
5.02996 4.013 0.0 
4.43804 3.97193 0.0 
4.78328 3.97737 0.0 
4.41215 4.04996 0.0 
4.76686 4.05411 0.0 
4.78639 4.00226 0.0 
4.45369 4.06646 0.0 
4.04073 4.00277 0.0 
4.18392 4.06259 0.0 
4.09547 3.97035 0.0 
4.61944 4.05294 0.0 
5.02574 4.00669 0.0 
8.75684 0.585272 0.0 
4.18723 4.11009 0.0 
4.71756 4.02623 0.0 
4.29615 3.9505 0.0 
4.28684 3.96502 0.0 
4.99347 4.02007 0.0 
4.02105 4.04639 0.0 
4.00749 3.97714 0.0 
5.01498 3.99662 0.0 
4.07806 4.04909 0.0 
4.79034 4.04839 0.0 
4.13155 4.05292 0.0 
4.90159 4.01523 0.0 
4.74534 4.04451 0.0 
3.92049 4.22115 0.0 
4.58599 3.96728 0.0 
4.17646 4.0697 0.0 
4.26136 4.08045 0.0 
4.0277 4.00858 0.0 
4.42891 4.06523 0.0 
4.04219 4.00834 0.0 
4.29077 4.06893 0.0 
4.00747 4.00932 0.0 
4.65841 4.06361 0.0 
4.119 4.05476 0.0 
4.42241 4.07122 0.0 
4.46135 4.0606 0.0 
4.00854 4.04134 0.0 
4.42776 3.97536 0.0 
4.34148 4.06619 0.0 
8.95278 7.51699 0.0 
4.01978 4.02161 0.0 
4.73291 4.0663 0.0 
5.00162 3.97999 0.0 
4.74143 4.04867 0.0 
3.99746 3.98902 0.0 
4.52611 3.95368 0.0 
4.68733 4.05112 0.0 
4.62756 4.06242 0.0 
4.45431 4.0988 0.0 
5.70391 4.04205 0.0 
4.01731 3.97083 0.0 
4.30499 4.07243 0.0 
4.20049 4.07494 0.0 
4.09154 3.93527 0.0 
4.24662 4.05047 0.0 
4.6559 7.60199 0.0 
4.25001 4.04496 0.0 
7.60298 2.95359 0.0 
4.34703 4.06568 0.0 
4.6898 4.06348 0.0 
4.44247 4.03874 0.0 
4.03283 4.06047 0.0 
3.99835 4.02918 0.0 
12.2764 4.67793 0.0 
4.53433 3.96353 0.0 
4.47465 4.07409 0.0 
4.65861 4.06584 0.0 
4.74313 4.05361 0.0 
4.6626 4.06446 0.0 
5.32572 4.04681 0.0 
4.06898 4.03915 0.0 
4.89631 4.016 0.0 
3.99623 4.03627 0.0 
4.03277 4.00935 0.0 
4.05133 4.02283 0.0 
4.67106 4.0685 0.0 
4.35132 4.07666 0.0 
4.68898 4.06028 0.0 
3.98742 4.01904 0.0 
4.1755 3.94311 0.0 
4.64736 4.15038 0.0 
4.67571 4.0775 0.0 
4.0781 3.98964 0.0 
4.66226 4.06166 0.0 
4.0197 4.06736 0.0 
4.22381 4.04688 0.0 
4.30741 3.96753 0.0 
4.85938 3.97872 0.0 
4.80172 3.98731 0.0 
4.66791 4.07575 0.0 
4.00652 4.03234 0.0 
3.99543 4.04517 0.0 
4.4606 3.97418 0.0 
4.59621 4.06546 0.0 
4.59568 4.0876 0.0 
4.22396 4.06302 0.0 
4.00427 4.04292 0.0 
4.61166 3.96667 0.0 
[...]
<PointData>
  <DataArray type = "Float64" Name="Vitesse" NumberOfComponents="3" format="ascii">
1 0 0.0 
0.999698 0 0.0 
1.00036 0 0.0 
1 0 0.0 
0.934226 -0.032268 0.0 
1e-307 1e-307 0.0 
0.170538 -0.0115766 0.0 
0.189319 0.0216504 0.0 
0.0762905 0.00419888 0.0 
0.274955 0.0098785 0.0 
0.41443 -0.0230052 0.0 
0.230936 -0.0176778 0.0 
0.110583 -0.0194179 0.0 
1e-307 1e-307 0.0 
0.0661966 -0.00583236 0.0 
0.147435 0.019436 0.0 
0.72337 0.100851 0.0 
0.146904 0.0113894 0.0 
0 0 0.0 
0.0965763 -0.00848389 0.0 
0 0 0.0 
0.000161378 8.1608e-06 0.0 
0.00442709 0.000412962 0.0 
1.00252 0 0.0 
0.0587418 0.00972635 0.0 
0.0115164 -0.001943 0.0 
2.62968e-141 -2.73868e-142 0.0 
0.0550994 -0.00487737 0.0 
0.245492 -0.017434 0.0 
0.303301 -0.0137212 0.0 
4.34585e-191 -5.60338e-192 0.0 
0 0 0.0 
0.0843329 0.00294622 0.0 
0.179371 -0.0079677 0.0 
0 0 0.0 
0.960055 -0.325191 0.0 
0 0 0.0 
0.932364 -0.00448011 0.0 
0.276084 0.00808007 0.0 
0.136331 -0.0117402 0.0 
0.132515 0.0102163 0.0 
0.605168 0.333202 0.0 
0.0587968 0.00261486 0.0 
1.0564 0.0163446 0.0 
1.06506 -0.0148453 0.0 
0.14569 -0.0113142 0.0 
0.0364061 0.001544 0.0 
1.00531 0 0.0 
0.814802 0.205029 0.0 
0.146873 0.00837224 0.0 
0.270176 0.00445477 0.0 
0.166759 -0.0188655 0.0 
0 0 0.0 
0.715257 -0.0428834 0.0 
0 0 0.0 
0.176422 0.0342778 0.0 
0 0 0.0 
0.299631 0.00959607 0.0 
0.401776 0.0075502 0.0 
0.0366805 -0.0065159 0.0 
0.175005 0.00518719 0.0 
0.931291 0.300768 0.0 
0 0 0.0 
0 1e-307 0.0 
0 0 0.0 
0.100111 -0.0173346 0.0 
0.0105401 -0.00172145 0.0 
0.0352285 -0.00238896 0.0 
0.832049 0.20106 0.0 
0.231055 0.00344017 0.0 
1.02728 -0.227949 0.0 
1.04342 -0.18624 0.0 
0.927194 0.236811 0.0 
0 0 0.0 
0.113042 0.00323567 0.0 
0.11411 0.00444415 0.0 
0.0364628 -0.0048682 0.0 
0.167892 0.00519767 0.0 
0.103935 -0.113318 0.0 
1.92741e-188 -3.32791e-190 0.0 
0.298473 0.0896271 0.0 
0.208633 0.0218202 0.0 
0.979597 -0.0148391 0.0 
0.095092 -0.0109876 0.0 
0 0 0.0 
0 0 0.0 
0.887711 -0.0392145 0.0 
0.654579 -0.0519662 0.0 
0.378725 0.180507 0.0 
0.00369393 0.000432998 0.0 
3.55634e-06 1.27613e-06 0.0 
0 0 0.0 
0.13734 -0.00501723 0.0 
0.106617 0.00677367 0.0 
0.173564 0.00941537 0.0 
0.0959252 -0.0110692 0.0 
0 0 0.0 
1.04438 0.00290614 0.0 
0.00164109 0.000101342 0.0 
0.0784918 -0.018114 0.0 
0.0992751 0.0042011 0.0 
0 0 0.0 
1e-307 0 0.0 
0.56085 0.13502 0.0 
0.041044 -0.00582545 0.0 
0.534325 -0.474164 0.0 
0.0596608 0.00318105 0.0 
1.04118 -0.0727182 0.0 
0 0 0.0 
0.943516 -0.0233717 0.0 
0.0243461 0.000917486 0.0 
0.150395 0.00665138 0.0 
0.132617 -0.00854593 0.0 
0.0232576 -0.000371336 0.0 
0.0827296 -0.00865082 0.0 
0.101702 0.00423372 0.0 
1.93299e-11 -4.44044e-13 0.0 
-2.25048e-231 5.74106e-232 0.0 
0.461644 -0.00529277 0.0 
0.00228764 -0.000134639 0.0 
0 0 0.0 
0.028816 -0.00216841 0.0 
0.0388818 -0.000265769 0.0 
0.300561 -0.157159 0.0 
0.0122792 -0.00145854 0.0 
0 0 0.0 
0 0 0.0 
0.961494 0.0983034 0.0 
0 0 0.0 
0.107154 0.00483582 0.0 
0.000164379 1.13074e-05 0.0 
0 0 0.0 
0.154146 0.0146355 0.0 
0.0700662 0.00223452 0.0 
0.0760877 -0.00816075 0.0 
0.64961 0.0937984 0.0 
0.0592632 -0.00711014 0.0 
0.057909 0.00209774 0.0 
0.119495 0.0133912 0.0 
0.572377 -0.0361531 0.0 
0.530629 -0.0685232 0.0 
0.140204 -0.0135975 0.0 
-1.19229e-93 1.98283e-94 0.0 
0.845794 0.224114 0.0 
0 0 0.0 
0.156406 0.00644 0.0 
0 0 0.0 
0.0474375 -0.00796921 0.0 
1.00389 0.028089 0.0 
0.0266648 -0.00405475 0.0 
0.0610481 -0.00792093 0.0 
0.109213 -0.0124245 0.0 
0.303807 0.00233702 0.0 
0 0 0.0 
0.0254652 -0.000901715 0.0 
0.000545814 -6.33512e-05 0.0 
0.267489 -0.00684355 0.0 
0.997745 0.0332376 0.0 
0.524163 -0.0136931 0.0 
0.137194 -0.0147908 0.0 
4.69778e-189 3.41697e-190 0.0 
0.282465 -0.0108072 0.0 
0.694657 0.12728 0.0 
0.147545 -0.00351728 0.0 
0.0652326 0.00365123 0.0 
0.0251195 -0.00268289 0.0 
1.06437 -0.0927966 0.0 
0.0941362 0.0173725 0.0 
0.17387 -0.00428146 0.0 
0.0945068 0.00494458 0.0 
1.0041 -0.0903952 0.0 
0.0680011 -0.0147637 0.0 
0.0182278 -0.00279433 0.0 
0.0161262 -0.00393774 0.0 
8.91398e-61 -1.81459e-61 0.0 
0.127879 -0.0141629 0.0 
0.177012 0.0150944 0.0 
0.324423 0.0147801 0.0 
6.81473e-54 -2.64186e-54 0.0 
0.234905 -0.00643373 0.0 
0.911835 -0.168977 0.0 
0.0506578 -0.00682572 0.0 
0.965113 0.0126072 0.0 
1.0261 -0.124451 0.0 
0.20904 -0.00140622 0.0 
0.12524 -0.0145261 0.0 
0.961252 -0.258194 0.0 
0.092315 -0.00280891 0.0 
1.81599e-47 1.2614e-48 0.0 
0 0 0.0 
0.0558727 -0.00733898 0.0 
0 0 0.0 
0.0198131 0.00110246 0.0 
0.567564 -0.00620826 0.0 
0 0 0.0 
0.167307 0.0117839 0.0 
0.0101582 -0.00123844 0.0 
0.49903 -0.0196443 0.0 
0.624545 -0.0506142 0.0 
0 0 0.0 
1 0 0.0 
0.818684 0.227658 0.0 
0.521288 0.0206388 0.0 
0.109681 0.00835023 0.0 
0.0901765 -0.0140177 0.0 
-1.51874e-90 1.21649e-91 0.0 
1e-307 1e-307 0.0 
0.0674622 -0.0127604 0.0 
1.57165e-142 -1.04929e-143 0.0 
0.226731 0.00619262 0.0 
0.0733591 -0.0176029 0.0 
0.69877 0.0698314 0.0 
0.199438 -0.0251859 0.0 
0.0769969 0.0142107 0.0 
0.202011 -0.0208921 0.0 
0.0866585 -0.0151566 0.0 
0.0980988 -0.00108023 0.0 
9.93322e-138 3.0083e-138 0.0 
0.999877 -0.000246689 0.0 
0.318724 -0.000831943 0.0 
0.369961 -0.00488766 0.0 
1.24494e-05 1.61485e-06 0.0 
0.0779352 -0.00919016 0.0 
0.989336 -0.259545 0.0 
1e-307 1e-307 0.0 
0.124047 0.00539732 0.0 
0.0681085 0.00836002 0.0 
0.606449 -0.267624 0.0 
0.00222638 0.000123062 0.0 
0.0686369 0.00340027 0.0 
0.054958 0.00268023 0.0 
0.939734 0.138116 0.0 
0.0382427 -0.00504469 0.0 
0.0876407 -0.00464673 0.0 
0.00267067 0.000278007 0.0 
0.131737 -0.018969 0.0 
0 0 0.0 
0.072717 -0.0118224 0.0 
1.08072 -0.0806095 0.0 
0.111762 -0.00665967 0.0 
0.000175422 -4.21499e-05 0.0 
2.47517e-146 -1.65256e-147 0.0 
0 0 0.0 
0.160719 0.00654555 0.0 
2.29362e-08 4.32942e-09 0.0 
0 0 0.0 
0.143871 0.0190527 0.0 
0.1924 0.0194197 0.0 
0.0558856 -0.00698814 0.0 
0.000899744 6.77395e-05 0.0 
0.130177 0.0132657 0.0 
0 0 0.0 
0.0242311 -0.00314845 0.0 
0.474409 -0.0403986 0.0 
0.0310104 -0.00142229 0.0 
0 0 0.0 
0.134887 0.0140366 0.0 
0.0994257 -0.00263521 0.0 
0.150115 0.00916215 0.0 
5.66399e-49 -5.59785e-50 0.0 
0.310729 0.0752535 0.0 
3.89998e-147 -5.00297e-148 0.0 
0.119398 -0.00665143 0.0 
0.0573627 -0.00217131 0.0 
9.63083e-51 -1.84949e-51 0.0 
0.0788789 -0.012224 0.0 
0.0600311 0.00301814 0.0 
0 0 0.0 
0.188043 0.0210792 0.0 
0.719351 -0.0628574 0.0 
0.568829 0.0412483 0.0 
4.31611e-186 1.48966e-187 0.0 
0.114786 -0.00330322 0.0 
0.770449 -0.134838 0.0 
0.769026 -0.100793 0.0 
0.127027 0.0646804 0.0 
0.300686 -0.0193383 0.0 
0.186887 0.0107185 0.0 
0.0726812 -0.00629026 0.0 
0.0488514 0.00175634 0.0 
0.0194319 0.00142233 0.0 
0.0333095 0.00195959 0.0 
0 0 0.0 
0.246821 0.00855292 0.0 
4.30525e-142 3.60582e-145 0.0 
0.0851736 0.00320104 0.0 
1.08986 -0.200969 0.0 
0.585947 0.259605 0.0 
0.843857 -0.0307527 0.0 
0.965553 0.0793653 0.0 
0.0953013 -0.00971199 0.0 
0.305302 0.02402 0.0 
1.0833 -0.216092 0.0 
0 0 0.0 
0.00176048 -4.8524e-05 0.0 
0 0 0.0 
0.0302848 -0.00599065 0.0 
0.142144 -0.0150403 0.0 
0.0449216 0.000635494 0.0 
0.00679295 -0.00271984 0.0 
0.0334407 0.00206291 0.0 
0.817081 0.330784 0.0 
0 0 0.0 
0.0620795 -0.0166712 0.0 
-2.40486e-237 -1.59635e-238 0.0 
0 0 0.0 
0.0401997 0.0040369 0.0 
0.17128 0.0208545 0.0 
0.848454 0.0233258 0.0 
0.032352 -0.00148825 0.0 
0 0 0.0 
-9.17444e-232 1.6747e-232 0.0 
0.857855 0.152274 0.0 
0.0952101 0.00477285 0.0 
0.00872378 -0.00147939 0.0 
0 0 0.0 
3.36231e-276 1.90289e-277 0.0 
0.120855 0.00765661 0.0 
0.073258 -0.00890685 0.0 
2.30863e-277 1.3173e-278 0.0 
0.970565 -0.0380738 0.0 
0.181779 0.00726577 0.0 
0 0 0.0 
-2.15024e-233 3.27473e-234 0.0 
1.05346 0.0324108 0.0 
1.04958 -0.0263922 0.0 
0.000224086 -2.00511e-05 0.0 
4.30655e-48 -1.1635e-49 0.0 
0.146442 -0.0138889 0.0 
0.0883229 0.0119576 0.0 
0.999653 -0.000764956 0.0 
0.999517 0.00550923 0.0 
0.023573 -0.000802875 0.0 
0.076058 -0.00713249 0.0 
0.418504 0.0252199 0.0 
0.408696 0.0308738 0.0 
1.09745 -0.0111743 0.0 
1.04211 -0.163808 0.0 
1.8353e-51 -6.18693e-53 0.0 
0.133928 -0.0175078 0.0 
6.21466e-182 -1.11163e-184 0.0 
0.105252 -0.00385277 0.0 
0.156634 -0.0085371 0.0 
4.63679e-280 1.82664e-281 0.0 
0.0218614 0.00128765 0.0 
0.81106 0.203847 0.0 
0.786895 0.263469 0.0 
0 0 0.0 
4.49472e-144 -1.95499e-145 0.0 
0.762364 0.320736 0.0 
0.00510211 -0.000709906 0.0 
0.187882 -0.0178969 0.0 
1.00339 0 0.0 
0.131699 0.00459675 0.0 
0.125876 0.080983 0.0 
0 0 0.0 
0.170086 -0.00590493 0.0 
0.0355616 -0.00139681 0.0 
0.523015 0.0234473 0.0 
0.208171 0.00649039 0.0 
0.903636 0.312169 0.0 
0.0377515 -0.00444664 0.0 
0.977429 -0.0110083 0.0 
0.0474989 -0.00562645 0.0 
0.0519194 -0.00402881 0.0 
0.0653567 -0.00701386 0.0 
0.0424774 0.00179302 0.0 
0.0681026 -0.00683924 0.0 
0.924062 0.103991 0.0 
0.133777 -0.00587046 0.0 
0 0 0.0 
0.0546797 -0.00868609 0.0 
0.0191 0.00134432 0.0 
0.100789 0.00433456 0.0 
0 0 0.0 
0.118083 -0.0117598 0.0 
0 0 0.0 
0.0162316 -0.00106559 0.0 
0 0 0.0 
0.0830726 0.00578224 0.0 
0.0330959 -0.00285866 0.0 
0.000539834 -2.14999e-05 0.0 
0.0469401 -0.00327477 0.0 
1.00139 0.00123449 0.0 
1.0672 0.162025 0.0 
0 0 0.0 
0.334343 -5.34519e-05 0.0 
0.0646897 0.000176315 0.0 
0.0536131 -0.0123351 0.0 
0.79563 0.350613 0.0 
0.774332 -0.448963 0.0 
0.053098 0.0088451 0.0 
0.358983 0.0980929 0.0 
0.0889238 -0.0095355 0.0 
0.000240611 5.62586e-05 0.0 
-7.71022e-230 7.83166e-231 0.0 
0.0301092 -0.00368696 0.0 
0.946484 0.0845097 0.0 
0.130011 0.00577458 0.0 
0.373116 0.0508629 0.0 
0.397111 0.0298435 0.0 
0 0 0.0 
2.70935e-46 -4.70573e-48 0.0 
0 0 0.0 
0.0304888 0.00293637 0.0 
-1.27204e-229 -1.31402e-229 0.0 
0.130121 -0.0105289 0.0 
0.173553 0.0315435 0.0 
0.0734912 -0.00154612 0.0 
1.94523e-51 -4.36376e-53 0.0 
0.728548 0.33426 0.0 
-4.40735e-90 -4.57864e-91 0.0 
-1.05208e-91 -4.99718e-93 0.0 
1.00356 -0.000914207 0.0 
0.00310081 0.00135349 0.0 
0.208222 -0.0177521 0.0 
0.157092 0.0171921 0.0 
0.0573422 -0.00630262 0.0 
0.485273 -0.465019 0.0 
0.27979 0.00765594 0.0 
0.036162 -0.00356134 0.0 
0.0949549 -0.00731077 0.0 
0.573055 -0.00371583 0.0 
0.493212 -0.0203403 0.0 
0.855624 -0.378555 0.0 
0.107774 0.00355909 0.0 
0.433915 0.0514191 0.0 
1.05951 -0.180402 0.0 
0 0 0.0 
1.00898 0.000946742 0.0 
0 0 0.0 
0.976413 0.0192818 0.0 
3.73467e-48 -3.98167e-49 0.0 
0.150673 -0.0128425 0.0 
0 0 0.0 
0.882826 0.323734 0.0 
0.595906 0.297971 0.0 
1.00003 -0.000630391 0.0 
0.156599 0.005464 0.0 
0.146869 -0.0054402 0.0 
0.153879 -0.0122809 0.0 
0.0975791 -0.00994009 0.0 
0.142256 -0.0112378 0.0 
0.351431 -0.0216151 0.0 
0.000110175 3.27427e-05 0.0 
-3.19894e-92 2.52209e-93 0.0 
0.659516 0.271001 0.0 
0 0 0.0 
0 0 0.0 
0.191825 -0.0147288 0.0 
0.178281 0.00129422 0.0 
0.118417 -0.010597 0.0 
0.507038 0.146472 0.0 
0.657683 -0.0401794 0.0 
1.02032 -0.0186026 0.0 
0.299043 -0.0205766 0.0 
0 0 0.0 
0.113292 -0.00901447 0.0 
0.858041 0.285304 0.0 
0 0 0.0 
0.0274421 0.00221957 0.0 
0.115296 0.00510523 0.0 
0.0222267 4.99908e-05 0.0 
0.273571 -0.0191149 0.0 
0.64574 0.350487 0.0 
0.716798 0.253113 0.0 
0.000933843 0.000114651 0.0 
0.10548 -0.0076107 0.0 
0.396256 -0.0192904 0.0 
2.91568e-52 3.05338e-53 0.0 
0.72404 0.308259 0.0 
0.145582 0.00571056 0.0 
0.974596 -0.0313599 0.0 
0.155269 -0.0123356 0.0 
0.101924 0.0115586 0.0 
0.0729751 0.00382976 0.0 
1.01533 -0.00504564 0.0 
0.91005 0.105353 0.0 
0.0170469 0.000573666 0.0 
0.107395 -0.00871815 0.0 
0 0 0.0 
0.125356 0.00536626 0.0 
0.717624 0.184145 0.0 
0 0 0.0 
0.00638818 0.000218149 0.0 
0.162603 0.0120265 0.0 
0.0955279 0.00483624 0.0 
0.0213605 -0.0010048 0.0 
0 0 0.0 
0.6803 0.229744 0.0 
0.139132 0.00553101 0.0 
0.927567 -0.0986176 0.0 
-2.94411e-94 2.08706e-95 0.0 
0.0738902 0.00401756 0.0 
0.0338863 0.000628695 0.0 
0.0889527 0.0102687 0.0 
0.300843 0.0557293 0.0 
0.0264727 0.000166008 0.0 
0.799908 0.181429 0.0 
0.998602 0.0146208 0.0 
0.148059 0.00655472 0.0 
0.0142685 0.00052458 0.0 
0 0 0.0 
0 0 0.0 
1e-307 1e-307 0.0 
0.620289 -0.198962 0.0 
0.111077 0.0149264 0.0 
0.999879 0.000806106 0.0 
0.837298 0.161529 0.0 
0 0 0.0 
0.506139 -0.100507 0.0 
0.0307301 0.000482778 0.0 
0.763777 -0.379705 0.0 
0.713711 0.256956 0.0 
0.598557 -0.328995 0.0 
0.260663 0.00244539 0.0 
-4.29551e-241 -3.76025e-242 0.0 
0.0365771 -0.0036771 0.0 
0.0338798 -0.0118334 0.0 
0.242157 -0.0176214 0.0 
0.763566 0.0825688 0.0 
0.187472 -0.0151216 0.0 
0 0 0.0 
1.01102 0.000979169 0.0 
0.0368205 0.00136926 0.0 
0.699978 0.207827 0.0 
0.999768 -0.000773245 0.0 
0.830895 0.340796 0.0 
0.86678 0.335161 0.0 
0 0 0.0 
0 0 0.0 
0 0 0.0 
0.00813191 -0.00171922 0.0 
8.40622e-279 6.62276e-281 0.0 
0.0598368 -0.00689361 0.0 
0.130073 0.00602912 0.0 
0.0940639 0.014069 0.0 
0.313648 -0.0102892 0.0 
0.0664315 -0.00397569 0.0 
0.151774 0.00281157 0.0 
0 0 0.0 
1.13196e-06 -6.98545e-08 0.0 
0.665058 0.201066 0.0 
0.239383 0.0160269 0.0 
0.809631 -0.153811 0.0 
1.10626 0.10577 0.0 
0.0563485 -0.00592421 0.0 
0.312425 -0.0180234 0.0 
0.133314 0.0591601 0.0 
-9.23952e-239 6.84984e-239 0.0 
0.104484 -0.00954197 0.0 
0.0523585 0.00296723 0.0 
1.06624 0.108544 0.0 
0.0162698 0.000642222 0.0 
0.136153 0.0062154 0.0 
0.582407 -0.0654903 0.0 
0.018511 0.00180881 0.0 
1.00023 -0.00228653 0.0 
1.53987e-141 -1.1364e-142 0.0 
0.157193 -0.0129832 0.0 
0.199835 0.00578898 0.0 
0.542684 0.00846468 0.0 
1.09833 -0.144783 0.0 
0.110389 -0.0101811 0.0 
0.829409 -0.453014 0.0 
0.11528 -0.0215678 0.0 
0.0109588 -5.17484e-06 0.0 
0.143564 -0.000197059 0.0 
0.472395 -0.0488272 0.0 
0.193708 0.0146976 0.0 
1.04349 0.00670355 0.0 
0.368421 0.00635039 0.0 
1.83891e-140 1.76661e-141 0.0 
0.142247 0.0149328 0.0 
0 0 0.0 
-1.39947e-92 -1.12381e-93 0.0 
0.887343 -0.161416 0.0 
0.000272156 -4.57972e-05 0.0 
1.02646 0.106804 0.0 
0.468418 -0.0390127 0.0 
0 0 0.0 
0.592486 0.0504818 0.0 
0.0548349 -0.00747392 0.0 
0.118997 0.000670585 0.0 
0.275305 -0.00851968 0.0 
0.0471865 0.00287768 0.0 
0.483929 -0.0797225 0.0 
0.750705 0.261651 0.0 
0.000428113 3.06366e-05 0.0 
0 0 0.0 
0.746637 0.146212 0.0 
0.696759 0.233294 0.0 
1.53813e-06 -1.78137e-07 0.0 
0 0 0.0 
0.0178466 -0.0012934 0.0 
0 0 0.0 
0 0 0.0 
0 0 0.0 
0 0 0.0 
0 0 0.0 
0.735858 0.206281 0.0 
0.151165 -0.0104749 0.0 
0.835805 0.0066543 0.0 
0 0 0.0 
0.670729 0.127157 0.0 
0.537135 0.0148019 0.0 
0.939952 0.0460851 0.0 
0.267821 0.00238851 0.0 
0.000863972 1.32546e-05 0.0 
0.225082 -0.0165535 0.0 
0.301332 -0.00744901 0.0 
0.698194 0.156719 0.0 
0.114427 0.00536843 0.0 
0.291134 0.0122889 0.0 
0.0267151 0.00138928 0.0 
0.0638793 -0.0121134 0.0 
0.942976 0.00266271 0.0 
0.201381 -0.0196179 0.0 
0.0240741 0.000135836 0.0 
1.04909 0.12007 0.0 
1.03165 -0.0103389 0.0 
0.216854 0.10707 0.0 
1 0 0.0 
0 0 0.0 
0.97489 -0.181143 0.0 
1.01966 0.0422999 0.0 
1.04471 -0.00270008 0.0 
0.574412 0.0496831 0.0 
1.05323 0.0169541 0.0 
0.284261 0.0234915 0.0 
0.00019462 5.57387e-05 0.0 
0 0 0.0 
0.773066 -0.349115 0.0 
0.0605164 0.00367164 0.0 
0.818272 -0.34015 0.0 
1.10576 0.121203 0.0 
0.845042 -0.383037 0.0 
0.480793 -0.456901 0.0 
0.400818 0.00301638 0.0 
0.73793 0.127742 0.0 
0.968885 0.00554604 0.0 
0 0 0.0 
0.893611 -0.402342 0.0 
0.09796 0.0029711 0.0 
6.69019e-47 7.04801e-49 0.0 
0.971224 -0.0235026 0.0 
0.000239184 -3.19602e-05 0.0 
0.675488 0.0691288 0.0 
4.42175e-05 -7.8445e-06 0.0 
0.00758975 -0.000656072 0.0 
1e-307 1e-307 0.0 
0.513465 0.0145617 0.0 
0.885326 -0.416771 0.0 
0.84777 0.111766 0.0 
0.00216942 -2.37068e-05 0.0 
0.626738 -0.102934 0.0 
0.567249 0.171648 0.0 
0.995609 0.00595534 0.0 
0.0515885 -0.00184648 0.0 
1.03588 0.223559 0.0 
0.971984 0.281812 0.0 
1.01313 0.0390185 0.0 
0 0 0.0 
0.0677496 -0.0045942 0.0 
0 0 0.0 
1.00417 -0.00905847 0.0 
0.890217 -0.0626803 0.0 
0.292531 0.0101753 0.0 
0.502066 0.0121943 0.0 
0 0 0.0 
0.126649 -0.0102412 0.0 
6.30485e-185 -2.45013e-186 0.0 
1e-307 1e-307 0.0 
0.825291 0.255948 0.0 
0 0 0.0 
0 0 0.0 
0.990148 -0.108152 0.0 
0.550935 -0.373715 0.0 
0.0818809 0.00698199 0.0 
0 0 0.0 
0.0776675 0.000662819 0.0 
0.0783851 0.00372551 0.0 
4.46675e-191 -2.52993e-193 0.0 
0.00704861 -0.00114456 0.0 
0.000879779 1.14136e-05 0.0 
0 0 0.0 
0 0 0.0 
0.76331 0.0802771 0.0 
0 0 0.0 
0 0 0.0 
0.67027 -0.0778942 0.0 
0.0239608 0.000144693 0.0 
0.00252775 0.000133868 0.0 
0.984698 -0.0418393 0.0 
0.00496157 0.00116829 0.0 
0.820925 0.00850881 0.0 
2.57274e-137 -1.81898e-139 0.0 
0.832083 0.301893 0.0 
0.234688 0.0226022 0.0 
0.710791 0.107624 0.0 
1.07063 -0.0166612 0.0 
0.855606 0.324098 0.0 
0.102852 0.00375768 0.0 
0.765377 0.105885 0.0 
1.07867 -0.234536 0.0 
0 0 0.0 
0 0 0.0 
0 0 0.0 
1.04176 -0.0515931 0.0 
0.924626 0.285258 0.0 
0.0515579 0.00304481 0.0 
0.832918 -0.207637 0.0 
0.735211 0.0914796 0.0 
0.896686 0.321583 0.0 
0.000485532 3.05877e-05 0.0 
-1.17397e-240 -8.20679e-242 0.0 
0.870234 0.314841 0.0 
0 0 0.0 
0.136294 0.00541648 0.0 
3.61947e-07 1.30935e-07 0.0 
0.656353 -0.00630343 0.0 
0.0596998 -0.00994874 0.0 
0.857611 0.335079 0.0 
0.403148 0.212136 0.0 
1 0 0.0 
0.00811703 -0.0007647 0.0 
1.03871 0.0478966 0.0 
0.0572038 0.00280421 0.0 
0.448659 -0.0103142 0.0 
0.0472879 0.00187128 0.0 
0.999057 -0.00101012 0.0 
0.0270565 0.00112805 0.0 
0.714733 -0.0149863 0.0 
0 0 0.0 
0.99051 0.0412598 0.0 
0.473965 -0.104066 0.0 
4.63902e-05 -5.6879e-06 0.0 
0.0476908 0.00766649 0.0 
0.566809 -0.0112634 0.0 
0.65957 -0.0743812 0.0 
0.0607488 -0.00397418 0.0 
0.883259 -0.241177 0.0 
0.860985 0.162824 0.0 
0.000450837 4.85394e-05 0.0 
0.249158 0.00656134 0.0 
0.79644 0.309274 0.0 
0.475701 4.48881e-05 0.0 
1.00113 0.0025692 0.0 
0.0324746 -0.0130606 0.0 
0 0 0.0 
0.39371 -0.0012264 0.0 
0.681487 0.0620488 0.0 
0.975872 0.276634 0.0 
0.0899855 0.00408948 0.0 
0.47424 -0.00667206 0.0 
2.8714e-190 -1.15109e-191 0.0 
0.11061 0.00405017 0.0 
0 0 0.0 
0.909416 -0.019007 0.0 
-6.64714e-236 4.92794e-236 0.0 
0 0 0.0 
0.100863 0.00397289 0.0 
0.642624 0.0543985 0.0 
0.087558 0.00429155 0.0 
0.203777 0.0016197 0.0 
1.00046 0 0.0 
0.896792 0.0869203 0.0 
0.0082921 -0.000810284 0.0 
0 0 0.0 
0.9297 -0.21148 0.0 
0.534691 0.271609 0.0 
0.123931 0.00244827 0.0 
1.04567 0.1493 0.0 
0.954561 -0.0417774 0.0 
0.744308 -0.0288083 0.0 
0.137771 0.00596287 0.0 
0.163366 0.00711707 0.0 
1.0066 0 0.0 
0.535511 -0.00926789 0.0 
0.000342825 2.20595e-05 0.0 
0 0 0.0 
0.983607 0.271803 0.0 
0.973093 -0.0416732 0.0 
0.220159 0.0155153 0.0 
0.616754 -0.333638 0.0 
0.648983 0.0746697 0.0 
1.00076 0.00274699 0.0 
0.0153975 -0.00145762 0.0 
1.19426e-47 -7.99328e-49 0.0 
0 0 0.0 
0.502092 0.00872777 0.0 
0.0777081 -0.00971187 0.0 
0.848661 -0.092853 0.0 
0 0 0.0 
0.978483 -0.0344398 0.0 
0.669208 -0.146288 0.0 
0.134929 0.00203195 0.0 
0 0 0.0 
0.178659 0.00749297 0.0 
0.830663 0.330652 0.0 
0.112868 -0.0116945 0.0 
0.206096 0.00837996 0.0 
0.0378347 0.00109832 0.0 
0.0961877 0.00492754 0.0 
0.183286 -0.00522332 0.0 
0.11038 0.00434981 0.0 
0.999626 0 0.0 
0.114634 0.00545536 0.0 
0.214827 0.0106232 0.0 
1.02246 0.135343 0.0 
0.953346 -0.157798 0.0 
0 0 0.0 
0.499344 0.0477935 0.0 
0 0 0.0 
0.980299 -0.0629313 0.0 
1.0553 -0.103807 0.0 
-4.6223e-227 2.06231e-228 0.0 
1.03858 -0.0257669 0.0 
0.126081 0.00246279 0.0 
0.884453 0.328004 0.0 
0.836337 -0.0137894 0.0 
0.43866 0.00798376 0.0 
0.232614 0.00592938 0.0 
0.928141 0.12836 0.0 
0.105654 0.00293246 0.0 
0.504769 -0.0413924 0.0 
0.807354 -0.093369 0.0 
0.574401 -0.0114046 0.0 
0.366169 0.00432671 0.0 
0.0645547 0.00329484 0.0 
0.0820127 0.00409488 0.0 
0.803775 0.286405 0.0 
0.975663 -0.131379 0.0 
0.0280167 -0.0037674 0.0 
0.621286 0.0954696 0.0 
0.00105139 -0.000126655 0.0 
0 0 0.0 
0.990867 0.197933 0.0 
0.0680578 0.00336531 0.0 
0.000396953 0.000125392 0.0 
0.807379 -0.0878064 0.0 
0.37307 0.00610197 0.0 
0 0 0.0 
0.954584 -0.00323993 0.0 
0.900808 0.114198 0.0 
1.07864e-271 5.18232e-272 0.0 
0.119074 0.0048919 0.0 
0.616768 0.193924 0.0 
1.00996 -0.074253 0.0 
0.0765262 -0.00185429 0.0 
0 0 0.0 
0.561327 -0.051228 0.0 
0.182814 0.00782419 0.0 
0.0537447 -0.00621444 0.0 
1.00193 0 0.0 
0.0698179 0.00250896 0.0 
0.319139 0.00981155 0.0 
0 0 0.0 
0.774131 0.00212557 0.0 
0.0502562 0.00309079 0.0 
0.959348 -0.0152402 0.0 
2.14715e-186 6.05806e-188 0.0 
0.129459 0.00558967 0.0 