<VTKFile type="UnstructuredGrid" version="0.1" byte_order="LittleEndian">
  <UnstructuredGrid>
    <Piece NumberOfPoints="14194" NumberOfCells="28236">
      <Points>
        <DataArray type = "Float64" NumberOfComponents="3" format="ascii">
0 0 0.0 
14 0 0.0 
14 8 0.0 
0 8 0.0 
4.84587 3.98268 0.0 
4.5054 3.9896 0.0 
5.15553 4.02606 0.0 
4.72423 4.00309 0.0 
4.54515 4.08235 0.0 
4.18699 4.08315 0.0 
4.26087 3.96681 0.0 
4.6932 4.07079 0.0 
5.03468 4.02948 0.0 
3.71585 4.0301 0.0 
4.57275 4.06362 0.0 
4.07886 3.96873 0.0 
4.18175 4.063 0.0 
4.44391 4.04882 0.0 
4.54419 3.95421 0.0 
4.65295 4.06077 0.0 
4.89366 3.99366 0.0 
4.40627 4.07246 0.0 
4.97505 4.01011 0.0 
8.40909 0 0.0 
4.67885 4.03702 0.0 
4.80392 4.01978 0.0 
4.47791 4.14562 0.0 
4.69289 4.05287 0.0 
3.23709 0 0.0 
4.01347 3.94819 0.0 
4.50228 3.96129 0.0 
4.13005 4.05698 0.0 
4.49719 3.96841 0.0 
4.48512 4.07584 0.0 
4.61938 4.05744 0.0 
4.97618 3.97992 0.0 
4.06288 4.03688 0.0 
4.00249 4.02948 0.0 
4.52546 3.86244 0.0 
4.69997 4.06131 0.0 
5.08606 3.99136 0.0 
4.92033 4.02504 0.0 
4.6017 3.97452 0.0 
4.98136 4.01717 0.0 
4.63151 4.06669 0.0 
4.7679 4.01497 0.0 
4.85519 4.04331 0.0 
4.36294 3.966 0.0 
4.09422 4.06655 0.0 
4.99512 4.03028 0.0 
4.4053 3.95331 0.0 
4.28026 4.06853 0.0 
4.49872 3.99524 0.0 
4.18875 3.93918 0.0 
4.51194 4.04817 0.0 
4.33106 3.95577 0.0 
4.42265 3.98976 0.0 
4.64458 3.95384 0.0 
4.48157 3.94456 0.0 
4.48338 4.06288 0.0 
4.08537 3.93895 0.0 
4.05789 4.06544 0.0 
4.10075 4.03591 0.0 
4.19691 3.96659 0.0 
5.14207 4.01474 0.0 
4.70753 3.98296 0.0 
4.59419 4.05606 0.0 
4.8716 4.04158 0.0 
4.09973 4.06883 0.0 
5.64959 4.05255 0.0 
4.0631 3.94627 0.0 
6.57668 4.79576 0.0 
4.09324 4.07263 0.0 
4.48463 4.0392 0.0 
4.89855 4.02113 0.0 
4.51059 3.96639 0.0 
4.69993 4.00324 0.0 
4.50667 3.96198 0.0 
5.81411 3.96522 0.0 
4.20437 4.06357 0.0 
4.06915 4.04534 0.0 
5.01575 3.97372 0.0 
4.55919 3.96919 0.0 
4.23412 4.06925 0.0 
4.08538 4.02507 0.0 
4.12721 3.98293 0.0 
6.13847 3.84237 0.0 
4.03237 3.98544 0.0 
3.99368 4.01426 0.0 
4.76964 4.04853 0.0 
4.84663 4.00841 0.0 
4.14408 3.98765 0.0 
4.95013 4.0225 0.0 
4.29436 4.06699 0.0 
5.61612 4.17033 0.0 
4.22828 3.96756 0.0 
5.01666 4.00266 0.0 
5.16364 4.0122 0.0 
4.85001 4.04579 0.0 
5.00489 4.02516 0.0 
4.98186 4.00162 0.0 
4.48341 4.0268 0.0 
4.90231 3.97634 0.0 
4.09424 4.05815 0.0 
4.72333 4.04659 0.0 
3.99988 3.98708 0.0 
4.04023 3.98111 0.0 
4.21788 3.91237 0.0 
4.71006 4.04579 0.0 
4.86367 4.00177 0.0 
4.82911 4.01102 0.0 
4.89365 4.01684 0.0 
4.54948 4.07028 0.0 
4.55943 3.97787 0.0 
4.64644 4.05988 0.0 
4.87677 3.98104 0.0 
5.07337 3.98502 0.0 
4.0585 3.97476 0.0 
3.99136 4.00099 0.0 
4.83362 4.04984 0.0 
4.43511 3.97416 0.0 
3.9654 4.23594 0.0 
4.86468 3.9921 0.0 
4.77375 4.00732 0.0 
4.84318 4.00879 0.0 
4.03205 4.02939 0.0 
4.42529 4.05205 0.0 
5.05167 3.98934 0.0 
4.43685 4.00368 0.0 
4.64087 3.97125 0.0 
4.49062 4.05167 0.0 
4.432 4.04803 0.0 
3.96103 3.91094 0.0 
4.66393 3.97711 0.0 
4.01131 4.002 0.0 
4.17786 4.07881 0.0 
4.85295 4.03748 0.0 
6.08273 3.99478 0.0 
4.68173 4.04663 0.0 
4.1628 3.94775 0.0 
4.9292 4.02944 0.0 
5.09798 4.0273 0.0 
4.87337 4.04769 0.0 
4.08831 4.06631 0.0 
4.69378 3.97445 0.0 
4.63894 3.96651 0.0 
4.71902 3.97859 0.0 
4.98031 4.02026 0.0 
4.41792 4.13014 0.0 
4.96925 4.01607 0.0 
4.1032 3.97038 0.0 
4.32012 3.95203 0.0 
4.01761 3.98555 0.0 
4.94576 4.02529 0.0 
4.77514 3.98646 0.0 
4.46945 4.09883 0.0 
4.48037 3.98546 0.0 
4.40235 4.12784 0.0 
4.52576 4.0968 0.0 
4.96401 4.0142 0.0 
3.99828 4.06973 0.0 
4.51039 4.08178 0.0 
3.97234 4.03785 0.0 
4.19394 3.96339 0.0 
4.70748 4.03493 0.0 
4.18416 3.91428 0.0 
5.00576 3.98835 0.0 
4.4074 4.07684 0.0 
4.4421 4.07991 0.0 
4.17071 3.92446 0.0 
5.02701 4.0199 0.0 
4.1754 4.06151 0.0 
4.98971 4.00888 0.0 
4.64698 4.15047 0.0 
4.64337 3.97302 0.0 
4.99603 3.97729 0.0 
4.30136 4.08065 0.0 
5.40519 3.84805 0.0 
4.09176 4.05182 0.0 
4.31686 4.06386 0.0 
0 2.35317 0.0 
5.10151 4.03951 0.0 
4.05664 3.81012 0.0 
4.39865 4.07858 0.0 
4.95309 4.03889 0.0 
4.0089 3.92893 0.0 
5.07819 4.0105 0.0 
4.37495 4.06944 0.0 
4.07685 3.98201 0.0 
4.93427 4.02782 0.0 
4.24915 4.05618 0.0 
5.1154 3.98711 0.0 
4.14376 3.94805 0.0 
4.86277 4.01565 0.0 
4.84373 4.01783 0.0 
4.40074 4.07728 0.0 
4.10001 3.9353 0.0 
4.01965 3.92739 0.0 
4.26735 4.03929 0.0 
4.9912 4.02804 0.0 
4.33994 4.05525 0.0 
4.82845 4.03 0.0 
5.07235 3.99531 0.0 
5.04611 4.02286 0.0 
4.8958 4.02865 0.0 
8.24889 1.81573 0.0 
4.98997 4.02393 0.0 
4.71236 4.03219 0.0 
4.01778 3.97712 0.0 
5.01943 4.02273 0.0 
3.96199 4.03038 0.0 
5.04864 4.04382 0.0 
4.07031 3.97515 0.0 
4.03056 4.00348 0.0 
4.06005 4.03579 0.0 
4.757 4.05226 0.0 
4.39927 4.08404 0.0 
4.43195 4.08715 0.0 
4.95928 3.98975 0.0 
4.679 4.05223 0.0 
4.81279 3.97609 0.0 
4.88438 4.03747 0.0 
6.06115 4.18698 0.0 
4.21613 3.90423 0.0 
4.92011 4.00515 0.0 
4.38743 4.07008 0.0 
4.11892 4.05003 0.0 
4.89119 3.98729 0.0 
4.18823 4.09442 0.0 
4.1176 3.96623 0.0 
4.18378 4.06251 0.0 
4.2553 3.96647 0.0 
4.50084 4.04805 0.0 
5.05402 4.03163 0.0 
4.86357 4.02549 0.0 
5.03851 4.01862 0.0 
5.65489 4.03577 0.0 
5.09724 4.01669 0.0 
4.94449 4.0034 0.0 
5.03245 3.98296 0.0 
4.11728 4.04788 0.0 
4.82262 4.00596 0.0 
4.38922 3.96925 0.0 
4.07918 3.97615 0.0 
4.84146 4.03201 0.0 
4.213 4.06906 0.0 
4.90226 4.03143 0.0 
3.95004 3.97529 0.0 
5.0636 3.98872 0.0 
4.83373 3.98126 0.0 
4.10323 3.94929 0.0 
3.98273 4.00621 0.0 
4.94163 4.01076 0.0 
4.51594 3.98552 0.0 
5.47709 4.12744 0.0 
4.98107 3.97981 0.0 
4.61165 3.96667 0.0 
4.61629 4.06124 0.0 
5.03772 3.97701 0.0 
5.10865 4.0171 0.0 
5.03617 4.00712 0.0 
4.83391 4.14696 0.0 
4.98218 4.02738 0.0 
4.08271 3.92862 0.0 
4.29249 4.04822 0.0 
4.27406 4.08825 0.0 
3.95046 4.00001 0.0 
4.01501 4.02058 0.0 
4.45449 4.09879 0.0 
4.79387 3.98713 0.0 
4.24882 3.98502 0.0 
4.63488 4.0788 0.0 
4.13156 4.05293 0.0 
4.13933 3.93566 0.0 
5.15402 3.98655 0.0 
4.26339 4.06986 0.0 
4.52881 3.9725 0.0 
4.38916 4.06786 0.0 
4.07486 3.97144 0.0 
4.07385 3.93326 0.0 
3.89096 4.0489 0.0 
4.29069 4.069 0.0 
4.06415 3.99462 0.0 
5.0367 3.96235 0.0 
3.99448 4.02842 0.0 
4.01995 4.02176 0.0 
4.89549 4.00903 0.0 
4.01925 4.05221 0.0 
6.2753 3.68481 0.0 
4.42439 4.06853 0.0 
3.9731 4.09746 0.0 
4.08053 3.99518 0.0 
4.79207 4.01477 0.0 
4.98463 4.01475 0.0 
4.88474 4.04745 0.0 
4.15866 3.97193 0.0 
5.00134 4.00081 0.0 
3.94144 4.15289 0.0 
4.46093 3.97341 0.0 
4.119 4.05476 0.0 
5.00388 4.02124 0.0 
4.71402 3.97515 0.0 
4.98317 3.98354 0.0 
4.89963 4.00996 0.0 
5.01224 3.97834 0.0 
4.02873 4.02055 0.0 
5.70518 4.04162 0.0 
4.55919 4.05108 0.0 
11.5596 3.82428 0.0 
4.78278 3.9973 0.0 
4.16887 3.98135 0.0 
3.99002 4.07043 0.0 
4.30492 4.07248 0.0 
4.0189 4.0241 0.0 
4.80976 4.00117 0.0 
4.84539 4.04074 0.0 
4.56563 4.00011 0.0 
4.76187 4.05782 0.0 
4.59526 3.96295 0.0 
4.44847 4.06806 0.0 
4.72454 4.05235 0.0 
4.40221 3.88483 0.0 
4.68607 4.05514 0.0 
4.00273 4.05728 0.0 
4.4536 4.06648 0.0 
4.1235 3.9646 0.0 
4.18661 4.06271 0.0 
4.74042 3.98433 0.0 
4.04371 4.02248 0.0 
4.4101 4.07182 0.0 
4.28115 4.08293 0.0 
4.25325 4.08014 0.0 
4.78797 3.99948 0.0 
4.47624 4.05741 0.0 
4.06897 4.03915 0.0 
4.98174 4.03773 0.0 
4.50661 4.06104 0.0 
4.12848 3.96588 0.0 
4.51764 3.95925 0.0 
4.85601 3.98739 0.0 
4.31973 4.09012 0.0 
4.52742 3.96539 0.0 
4.6257 4.05857 0.0 
4.7832 4.00815 0.0 
4.09545 3.97035 0.0 
4.00975 4.04675 0.0 
4.77959 4.04346 0.0 
5.11748 4.03535 0.0 
2.67239 0 0.0 
4.43566 4.07646 0.0 
4.43796 3.9719 0.0 
4.79633 4.03179 0.0 
4.38144 4.0754 0.0 
5.70231 3.82441 0.0 
5.01496 3.99661 0.0 
5.02996 4.013 0.0 
4.03695 4.06573 0.0 
4.07803 4.04909 0.0 
4.61975 4.05299 0.0 
4.04073 4.00277 0.0 
4.43751 4.0743 0.0 
5.02574 4.00669 0.0 
4.78721 4.00244 0.0 
3.40978 5.11498 0.0 
4.23233 4.101 0.0 
5.94086 4.22755 0.0 
4.83757 4.01681 0.0 
4.89654 4.01501 0.0 
4.76653 4.05417 0.0 
4.78328 3.97737 0.0 
4.41215 4.04996 0.0 
4.33964 4.06667 0.0 
4.79035 4.04838 0.0 
4.02992 4.02839 0.0 
4.91499 3.99499 0.0 
6.15042 4.20315 0.0 
4.28684 3.96493 0.0 
3.92008 4.22166 0.0 
4.02105 4.04639 0.0 
8.75684 0.585272 0.0 
4.18723 4.11009 0.0 
4.71756 4.02623 0.0 
4.29615 3.9505 0.0 
4.00747 4.00932 0.0 
4.99347 4.02007 0.0 
4.0197 4.06736 0.0 
4.00749 3.97714 0.0 
4.5853 3.96718 0.0 
4.17645 4.0697 0.0 
4.46129 4.06061 0.0 
4.22394 4.06303 0.0 
8.95282 7.51699 0.0 
4.04219 4.00834 0.0 
4.26136 4.08045 0.0 
4.0277 4.00858 0.0 
4.35119 4.07663 0.0 
4.9918 3.96949 0.0 
4.14175 3.93102 0.0 
4.65825 4.06368 0.0 
4.45151 3.96831 0.0 
4.30754 3.96741 0.0 
4.42241 4.07122 0.0 
4.68707 4.05133 0.0 
4.00854 4.04134 0.0 
4.20049 4.07494 0.0 
7.603 2.95316 0.0 
4.73291 4.0663 0.0 
4.68985 4.06343 0.0 
4.52746 3.95405 0.0 
5.00162 3.97999 0.0 
4.96781 3.99639 0.0 
3.99746 3.98902 0.0 
4.03283 4.06047 0.0 
4.62445 3.97961 0.0 
4.62756 4.06242 0.0 
6.21488 3.96707 0.0 
4.95003 3.98777 0.0 
4.01731 3.97083 0.0 
4.67098 4.06847 0.0 
4.6622 4.06168 0.0 
4.09154 3.93527 0.0 
4.24662 4.05047 0.0 
4.6559 7.60199 0.0 
4.25001 4.04496 0.0 
4.80281 3.98925 0.0 
4.34703 4.06568 0.0 
4.66295 4.06438 0.0 
4.44247 4.03874 0.0 
4.53496 3.96388 0.0 
3.99835 4.02918 0.0 
12.2764 4.67793 0.0 
4.74309 4.05353 0.0 
4.47465 4.07409 0.0 
4.65861 4.06584 0.0 
4.59619 4.06547 0.0 
5.3262 4.0473 0.0 
4.61453 3.98074 0.0 
3.98742 4.01904 0.0 
4.95125 3.98496 0.0 
3.99623 4.03627 0.0 
4.03277 4.00935 0.0 
4.05133 4.02283 0.0 
4.68897 4.06027 0.0 
4.48694 4.0634 0.0 
3.99543 4.04517 0.0 
4.56805 4.05981 0.0 
4.1755 3.94311 0.0 
4.59617 4.08777 0.0 
4.67571 4.0775 0.0 
4.0781 3.98964 0.0 
4.22361 4.04691 0.0 
4.66787 4.0757 0.0 
4.79231 3.98076 0.0 
7.68269 4.4641 0.0 
4.85938 3.97872 0.0 
4.40666 3.97007 0.0 
4.31254 4.0735 0.0 
4.00652 4.03234 0.0 
4.47102 3.9751 0.0 
5.33029 4.1739 0.0 
4.65796 4.06151 0.0 
4.21292 3.96693 0.0 
4.6076 3.87566 0.0 
4.00427 4.04292 0.0 
4.19204 4.06312 0.0 
4.66887 4.06543 0.0 
3.98227 4.04617 0.0 
4.99643 3.98691 0.0 
4.97724 3.99606 0.0 
4.05516 4.04952 0.0 
3.98172 4.06844 0.0 
4.86435 3.97776 0.0 
[...]
<PointData>
  <DataArray type = "Float64" Name="Vitesse" NumberOfComponents="3" format="ascii">
1 0 0.0 
0.999677 0 0.0 
1.00038 0 0.0 
1 0 0.0 
0.0791367 0.00374784 0.0 
9.34167e-281 4.58669e-282 0.0 
0.173072 -0.0109175 0.0 
0 0 0.0 
0.303634 -0.0140254 0.0 
0.724746 0.0994798 0.0 
0.0272241 -0.00106168 0.0 
0.232159 -0.0176999 0.0 
0.111259 -0.0196418 0.0 
0.933271 -0.00326244 0.0 
0.0663059 -0.00588353 0.0 
0.176545 -0.0154848 0.0 
0.0959231 0.00609164 0.0 
0 0 0.0 
0.278213 0.00824544 0.0 
0.097096 -0.00824576 0.0 
0.00331884 0.000252353 0.0 
0.0891662 -0.00251579 0.0 
0.0113819 -0.0019267 0.0 
1.00302 0 0.0 
-1.22308e-186 1.27377e-187 0.0 
-2.48127e-236 3.19925e-237 0.0 
1.05971 0.0158763 0.0 
0.0542581 -0.00560082 0.0 
1.00504 0 0.0 
0.959086 -0.323783 0.0 
0.177193 0.00519943 0.0 
0.175438 0.0342851 0.0 
0.086774 0.00270163 0.0 
0.178866 -0.00806968 0.0 
0.0367862 -0.0028681 0.0 
0.150638 0.0086755 0.0 
0 0 0.0 
0.606235 0.335453 0.0 
1.06481 -0.013876 0.0 
0.13661 -0.0119223 0.0 
0.13594 0.0111946 0.0 
0.0362236 -0.00486477 0.0 
0.0593507 0.00275272 0.0 
0.036573 -0.00651892 0.0 
0.144907 -0.0114319 0.0 
0 0 0.0 
0.0961704 -0.0109215 0.0 
0.0703121 0.00227823 0.0 
0.815718 0.205547 0.0 
0.0999841 -0.0174185 0.0 
0.271785 0.0046964 0.0 
0.0330253 0.0017357 0.0 
0 0 0.0 
0.717614 -0.0427784 0.0 
0 0 0.0 
0.231362 0.00275539 0.0 
0 0 0.0 
0.303252 0.00984902 0.0 
0.404238 0.00802353 0.0 
-2.8807e-55 6.89213e-57 0.0 
1.04262 -0.185424 0.0 
0.933072 0.301337 0.0 
0 0 0.0 
0.023547 -0.000466959 0.0 
0.139738 -0.00428044 0.0 
0.0203716 0.0011625 0.0 
0.00118825 -0.000121123 0.0 
0.095648 -0.0107944 0.0 
0.832565 0.201515 0.0 
0.494649 -0.0145199 0.0 
1.02705 -0.226926 0.0 
1.03031 0.0112606 0.0 
0.928147 0.237368 0.0 
0 0 0.0 
0.0107536 -0.00127082 0.0 
0.115649 0.00368232 0.0 
0 0 0.0 
0.169607 0.00508965 0.0 
0.461497 0.0167856 0.0 
0.0388479 0.00275613 0.0 
0.298211 0.0895883 0.0 
0.2144 0.022374 0.0 
0.0999952 0.00391983 0.0 
0.133947 0.0139479 0.0 
0 0 0.0 
0 0 0.0 
0.873494 -0.0346265 0.0 
4.00418e-164 -8.20563e-165 0.0 
0.379782 0.183738 0.0 
0.0764892 -0.00811384 0.0 
0 0 0.0 
0 0 0.0 
0.040813 -0.00586218 0.0 
6.34031e-06 8.28388e-07 0.0 
0.955708 -0.0218984 0.0 
0.00892709 0.000743451 0.0 
0.0392771 -0.00023139 0.0 
0.150334 -0.00267401 0.0 
0.109439 -0.0123114 0.0 
0.0788204 -0.0183104 0.0 
5.90595e-139 -9.75412e-140 0.0 
0 0 0.0 
0.153785 0.0066768 0.0 
0.560709 0.135067 0.0 
0.0280065 -0.00283317 0.0 
0.533515 -0.471142 0.0 
-7.26696e-65 1.47521e-65 0.0 
1.04143 -0.0721122 0.0 
0.0123134 -0.000961547 0.0 
-1.30012e-232 -4.48724e-234 0.0 
0 0 0.0 
-3.75885e-51 4.67559e-52 0.0 
0.132299 -0.00822157 0.0 
0.00675757 0.00077202 0.0 
0.0829216 -0.00758731 0.0 
0.104461 0.00448271 0.0 
0.158472 0.0155876 0.0 
0.000281796 -7.2995e-05 0.0 
0.29973 -0.154514 0.0 
0.128039 -0.0141373 0.0 
3.5049e-05 7.06395e-07 0.0 
0.963041 0.0989829 0.0 
0.00927194 0.000100359 0.0 
0 0 0.0 
0 0 0.0 
0.121876 0.0610114 0.0 
0 0 0.0 
0.122767 0.0140874 0.0 
1.51761e-290 1.3285e-291 0.0 
0.108782 0.00504982 0.0 
0 0 0.0 
0 0 0.0 
0.911421 -0.167695 0.0 
0.058311 0.00273933 0.0 
0 0 0.0 
0.650875 0.0933271 0.0 
0.0593037 -0.00697665 0.0 
0.516791 -0.0348944 0.0 
0.000968804 -5.35207e-05 0.0 
0.574249 -0.0368574 0.0 
0.060795 -0.00776946 0.0 
0.141745 -0.0133626 0.0 
0.138234 -0.0147787 0.0 
0.846417 0.224443 0.0 
0.0960272 0.00358206 0.0 
0.158727 0.00651647 0.0 
0.0654 0.00369101 0.0 
0.0474015 -0.00798556 0.0 
1.00642 0.0281242 0.0 
0.0264924 -0.00403886 0.0 
0.000239423 -2.1569e-05 0.0 
0.29981 0.00196063 0.0 
-1.09332e-57 4.23681e-58 0.0 
0.0503974 -0.00682819 0.0 
0.0197677 0.00133399 0.0 
0.569041 -0.00646245 0.0 
-1.00303e-190 -8.40081e-194 0.0 
1.00007 0.0332506 0.0 
0.525722 -0.014113 0.0 
0.0180388 -0.00276938 0.0 
0.820552 0.229566 0.0 
0.282645 -0.010843 0.0 
0.69577 0.129527 0.0 
0.102728 -0.00247516 0.0 
1.08949e-139 -1.14703e-140 0.0 
1.06458 -0.0924665 0.0 
0.0965765 0.0176144 0.0 
0.173487 -0.00278206 0.0 
0.235714 -0.00673373 0.0 
1.0048 -0.0904277 0.0 
0.0680874 -0.0149712 0.0 
0.0638402 0.00904429 0.0 
0.0160123 -0.00393557 0.0 
1.02449 -0.0191553 0.0 
0.0913152 0.00445637 0.0 
0.18168 0.0154286 0.0 
0.322798 0.0139981 0.0 
0.972519 0.0126447 0.0 
0.310455 0.0752045 0.0 
-8.5135e-93 -5.91353e-94 0.0 
1 0 0.0 
0.204355 -0.0209365 0.0 
1.02533 -0.123697 0.0 
0.209655 -0.00163192 0.0 
0.126121 -0.0146936 0.0 
0.960441 -0.256891 0.0 
0.093389 -0.0023985 0.0 
0.0238009 -0.000786988 0.0 
0 0 0.0 
0.0558605 -0.00721914 0.0 
0 0 0.0 
0.171624 0.0129172 0.0 
0.626648 -0.0513419 0.0 
0 0 0.0 
0 0 0.0 
0.183411 -0.00264426 0.0 
1.04135 -0.163431 0.0 
0.988523 -0.258293 0.0 
0 0 0.0 
0.0869793 -0.0152609 0.0 
0 0 0.0 
0.00728945 -0.00128503 0.0 
0.11204 0.00916366 0.0 
0.0906182 -0.014117 0.0 
0.0388915 -0.00520147 0.0 
1.00005 0.00661497 0.0 
0.0676635 -0.0128438 0.0 
-1.23583e-188 8.36235e-190 0.0 
0.606557 -0.267504 0.0 
0.073537 -0.0178372 0.0 
0.699687 0.0719946 0.0 
0.201929 -0.0254456 0.0 
3.57312e-07 -6.74335e-08 0.0 
0 0 0.0 
-5.28055e-183 -1.59923e-183 0.0 
0.0963993 -0.00980198 0.0 
0.318842 -0.000648068 0.0 
0.371308 -0.00399759 0.0 
0.0611845 0.00344597 0.0 
0.0383707 -0.00321065 0.0 
0.124931 0.00568838 0.0 
0.0782451 -0.00942852 0.0 
0.916077 -0.0142273 0.0 
1.08055 -0.079967 0.0 
3.61979e-144 1.99288e-145 0.0 
0.0399936 -0.00190656 0.0 
4.24446e-09 7.52344e-10 0.0 
0.0560709 0.00265302 0.0 
0.939448 0.136993 0.0 
0.118815 -0.00933795 0.0 
0.070433 0.00205064 0.0 
0.035023 0.000498429 0.0 
0 0 0.0 
0.13243 -0.0191099 0.0 
0.00861554 -0.00142647 0.0 
0.0728867 -0.011917 0.0 
0.43466 -0.00821606 0.0 
0.113179 -0.00621344 0.0 
-1.12011e-231 1.41305e-232 0.0 
0.147909 0.0195954 0.0 
0 0 0.0 
0 0 0.0 
0.0345357 0.00135936 0.0 
-2.97392e-191 3.815e-192 0.0 
0.024259 -0.00310279 0.0 
0.19051 0.0192456 0.0 
0.0557436 -0.00702979 0.0 
0.770496 -0.133032 0.0 
0.133811 0.013988 0.0 
0.0862159 0.00420897 0.0 
0.769842 -0.101036 0.0 
0.474718 -0.0377133 0.0 
1.61671e-05 -1.73457e-06 0.0 
-1.66224e-187 -1.3922e-190 0.0 
0.853293 -0.0292944 0.0 
0.153949 0.00944266 0.0 
0.147142 0.00609785 0.0 
0.0737222 -0.00583891 0.0 
0.193385 0.0217926 0.0 
0.121027 -0.00612049 0.0 
0.0577813 -0.00210573 0.0 
0.974498 -0.0391275 0.0 
0.0792115 -0.0123075 0.0 
1.08875 -0.19978 0.0 
0 0 0.0 
0.568786 0.0405669 0.0 
0.719759 -0.060868 0.0 
0.126513 0.0699153 0.0 
0.574759 -0.00386554 0.0 
0.0217121 0.00203202 0.0 
0 0 0.0 
0.295248 -0.0190077 0.0 
0.000207257 4.86708e-05 0.0 
0.928277 -0.099152 0.0 
0.192297 0.0119283 0.0 
0.0870777 0.00693333 0.0 
0.0501878 0.00167757 0.0 
0.00459004 0.000233215 0.0 
0.0638395 -0.0119786 0.0 
1.0823 -0.214859 0.0 
0.849449 0.024894 0.0 
0.0300964 0.00380278 0.0 
0 0 0.0 
0.313093 0.0249974 0.0 
0.587232 0.262181 0.0 
0.00080998 0.000637757 0.0 
6.89467e-281 -2.99255e-282 0.0 
0.81984 0.332961 0.0 
1.06442 -0.0273 0.0 
0.0242792 -0.000254856 0.0 
0.859439 0.153863 0.0 
0 0 0.0 
0 0 0.0 
0.0301539 -0.00599251 0.0 
0.1433 -0.0151912 0.0 
-2.45041e-51 7.14201e-53 0.0 
0.00686898 -0.00283969 0.0 
0.911461 0.106199 0.0 
0.00931153 0.00110327 0.0 
0.173003 0.0315133 0.0 
0.0622007 -0.0168584 0.0 
0.0966327 0.00462823 0.0 
0.123921 0.00784598 0.0 
-1.31885e-187 1.86447e-188 0.0 
0.176015 0.0212945 0.0 
0 0 0.0 
0.467233 -0.00978213 0.0 
-7.86308e-234 5.42961e-235 0.0 
0.999635 -0.000865224 0.0 
1e-307 1e-307 0.0 
0 0 0.0 
0.81278 0.205752 0.0 
0.107946 0.00598149 0.0 
0.20536 0.130442 0.0 
1e-307 0 0.0 
0.073441 -0.00879305 0.0 
0 0 0.0 
0.147107 -0.0139997 0.0 
0.184027 0.00732873 0.0 
0.034293 -0.00188851 0.0 
0.0736182 -0.00750188 0.0 
1.05099 -0.0260541 0.0 
0.068894 -0.00622504 0.0 
0.788844 0.265676 0.0 
0.0158708 -0.00103534 0.0 
0.161992 -0.0130064 0.0 
0.0680102 0.00462769 0.0 
0.0218182 0.00126199 0.0 
0 0 0.0 
0.0792745 0.00021049 0.0 
0.417843 0.0243943 0.0 
0.407826 0.0322317 0.0 
-6.84934e-189 -2.40864e-190 0.0 
-8.78706e-189 3.82195e-190 0.0 
0.000161687 4.81624e-05 0.0 
0.135107 -0.0177029 0.0 
-3.30454e-227 5.91092e-230 0.0 
0.104913 -0.00621243 0.0 
0.207791 0.00640466 0.0 
0.0427222 0.00301686 0.0 
0.523906 0.0236843 0.0 
0.133488 0.005089 0.0 
0.0533602 -0.0052118 0.0 
0 0 0.0 
0.0342308 -0.00293121 0.0 
0.764501 0.323489 0.0 
0.0476713 -0.0056514 0.0 
0.19033 -0.0176891 0.0 
1.00324 0 0.0 
0.171969 -0.00445847 0.0 
0.0187308 -0.000203854 0.0 
2.86054e-05 -3.15778e-06 0.0 
0.146007 -0.00156684 0.0 
0.980822 0.00100485 0.0 
0.0542149 0.008935 0.0 
0.0547512 -0.00879276 0.0 
0.906091 0.313286 0.0 
0.359172 0.0981605 0.0 
1.73033e-05 -1.05414e-06 0.0 
0 0 0.0 
0.133598 -0.00432405 0.0 
0.0472013 -0.0033225 0.0 
0 0 0.0 
0.998984 0.0145768 0.0 
0.927247 0.10347 0.0 
0.973833 -0.00935644 0.0 
0 0 0.0 
-5.93391e-97 7.90415e-98 0.0 
0.118809 -0.011807 0.0 
0.101851 0.00488971 0.0 
0 0 0.0 
-2.59e-50 1.44168e-51 0.0 
0.0893161 -0.00952685 0.0 
0.124359 0.0475862 0.0 
0.00125238 6.24123e-05 0.0 
0.907862 -0.00694253 0.0 
0.0677218 0.0025988 0.0 
0.947831 0.0851385 0.0 
0.79875 0.352983 0.0 
1.00178 0.00142411 0.0 
1.07124 0.162161 0.0 
0 0 0.0 
0.33573 0.000464025 0.0 
6.7594e-275 6.98244e-275 0.0 
0.0536572 -0.0124207 0.0 
0.860386 0.286973 0.0 
0.773304 -0.447549 0.0 
0.132418 0.00564139 0.0 
0.369592 0.0490784 0.0 
-2.22892e-96 5.00016e-98 0.0 
9.68913e-07 3.87474e-08 0.0 
1.00383 -0.00099764 0.0 
0 0 0.0 
0.397723 0.0304317 0.0 
0 0 0.0 
0.177665 0.000592026 0.0 
0.245502 0.0165009 0.0 
0.990521 -0.10852 0.0 
0.131326 -0.0109217 0.0 
0.0685403 0.00263099 0.0 
0.0321609 0.000431319 0.0 
0.0717611 -0.00166953 0.0 
0.0370472 -0.00341061 0.0 
0.730296 0.337328 0.0 
0.429894 0.0485645 0.0 
0.978825 0.0271309 0.0 
0.209199 -0.0181824 0.0 
0.151003 -0.0126527 0.0 
0.277642 0.0079373 0.0 
0.161298 0.0175196 0.0 
0.0111911 -3.2379e-05 0.0 
0.485003 -0.461485 0.0 
0.885451 0.324953 0.0 
0.0169509 0.000614361 0.0 
0.094819 -0.00830477 0.0 
0.551719 -0.0565002 0.0 
0.0737551 0.00360444 0.0 
0.855028 -0.377774 0.0 
0.19203 -0.0148925 0.0 
0.113496 -0.00973343 0.0 
1.05854 -0.179811 0.0 
0 0 0.0 
1.0089 0.000975912 0.0 
0 0 0.0 
0.0063686 0.000203345 0.0 
-1.98585e-93 2.11719e-94 0.0 
0.142085 -0.0117221 0.0 
0 0 0.0 
0.15421 0.00599665 0.0 
0.597172 0.300455 0.0 
1.00004 -0.000696884 0.0 
0.0968519 -0.0100682 0.0 
0.146116 -0.00560359 0.0 
0.154643 -0.0125192 0.0 
0.105823 -0.00782017 0.0 
0.357911 -0.0223134 0.0 
0.0022468 0.000215941 0.0 
0.508003 0.149299 0.0 
0.0977329 0.00481096 0.0 
0.660862 0.273563 0.0 
0 0 0.0 
0 0 0.0 
0.118757 -0.0103266 0.0 
2.019e-06 -2.33426e-07 0.0 
0.718344 0.255576 0.0 
0.0178913 -0.00132926 0.0 
0.659913 -0.0406471 0.0 
0.400211 -0.0194644 0.0 
0.300464 -0.020657 0.0 
0 0 0.0 
0 0 0.0 
0.274234 -0.0192158 0.0 
0.0750572 0.0036451 0.0 
1.06245 -0.0536748 0.0 
0.117733 0.00550587 0.0 
0.0281575 0.00117112 0.0 
0.126452 0.00405034 0.0 
0.646295 0.353124 0.0 
1.45186e-05 6.13956e-07 0.0 
0.979185 -0.0316324 0.0 
0.108632 -0.00927368 0.0 
0.0212248 0.000420803 0.0 
1.01736 -0.00383182 0.0 
0.725709 0.31104 0.0 
0.0612651 0.0111747 0.0 
0.157323 -0.0127574 0.0 
0.718973 0.186407 0.0 
0.104582 0.0117446 0.0 
0.0178232 0.00137012 0.0 
0.680349 0.229419 0.0 
0.801487 0.18335 0.0 
0.12792 0.00550331 0.0 
0 0 0.0 
0 0 0.0 
0.0219583 0.000160866 0.0 
0.299725 0.0558246 0.0 
0.0580012 -0.00617512 0.0 
0.0325339 0.00230093 0.0 
0.166834 0.0123012 0.0 
0.54328 0.00807716 0.0 
0 0 0.0 
-1.44926e-93 1.0654e-94 0.0 
3.31541e-07 -2.20998e-08 0.0 
1.98154e-141 2.14205e-143 0.0 
1.01144 0.000689964 0.0 
-4.55236e-234 3.43176e-235 0.0 
0.0349787 0.00108399 0.0 
0.0383828 0.0022647 0.0 
0.15007 0.00675285 0.0 
0 0 0.0 
0.620826 -0.198953 0.0 
0.763029 -0.377544 0.0 
0.852906 0.0126193 0.0 
7.30339e-286 6.39333e-287 0.0 
0 0 0.0 
0 0 0.0 
0.701355 0.210194 0.0 
0.0356459 -0.00267298 0.0 
0.114062 0.015383 0.0 
0.999884 0.000834803 0.0 
0.838908 0.163243 0.0 
0 0 0.0 
0.507723 -0.100496 0.0 
0.265307 0.00172665 0.0 
1.05548 -0.103754 0.0 
0.713904 0.256376 0.0 
0.598311 -0.328649 0.0 
0.243371 -0.0176885 0.0 
1.10892 0.105459 0.0 
1.06884 0.108303 0.0 
0.0338088 -0.0120687 0.0 
9.3104e-05 -1.06627e-05 0.0 
0.76461 0.0845211 0.0 
0.188344 -0.0149531 0.0 
0 0 0.0 
1 0 0.0 
4.59268e-282 -1.14949e-282 0.0 
0.0528067 0.00335588 0.0 
0.999763 -0.000872999 0.0 
0.833887 0.342614 0.0 
0.869458 0.336124 0.0 
0.00134369 -0.000136271 0.0 
0 0 0.0 
0 0 0.0 
0.13199 0.0050737 0.0 
1e-307 1e-307 0.0 
0.059937 -0.00688057 0.0 
0.000167293 -2.73619e-05 0.0 
0.0964732 0.0143837 0.0 
0.313612 -0.010451 0.0 
2.47682e-283 -1.83622e-283 0.0 
0 0 0.0 
0.335871 -0.0195388 0.0 
0.66634 0.203506 0.0 
0.000988373 -6.20592e-06 0.0 
0.810982 -0.152631 0.0 
0.88702 -0.160044 0.0 
0.142968 0.0156653 0.0 
0.0062982 0.000720287 0.0 
0.0527097 0.00300093 0.0 
0.00672714 -0.000849866 0.0 
0.104228 -0.00890627 0.0 
0.370621 0.00620262 0.0 
0.0804693 0.0051384 0.0 
0.0789456 0.00381733 0.0 
0.137842 0.0063381 0.0 
1.03564 -0.00283183 0.0 
0.0407535 0.0064668 0.0 
0.474637 -0.0483844 0.0 
-8.18801e-187 6.04261e-188 0.0 
0.157401 -0.0127684 0.0 
0.20095 0.00615208 0.0 
0.151201 -0.00795339 0.0 
0.110402 -0.00945845 0.0 
0.000870655 0.000246677 0.0 
0.82825 -0.451192 0.0 
0.116124 -0.0218205 0.0 
0.000131959 -6.40557e-06 0.0 
0.0176046 0.00186628 0.0 
0.396281 0.00254919 0.0 
0.192465 0.0145634 0.0 
0.0545775 -0.00727523 0.0 
0.108642 0.00359224 0.0 
0.592226 0.0508244 0.0 
0.836668 0.00825779 0.0 
0 0 0.0 
0.00168893 0.000212924 0.0 
1.02704 0.105908 0.0 
0.0266004 0.000415323 0.0 
0.471044 -0.0414077 0.0 
0 0 0.0 
0.537676 0.0173194 0.0 
0.988182 -0.00748593 0.0 
0.745594 0.147319 0.0 
0.27496 -0.00881506 0.0 
0.0478717 0.00208305 0.0 
0.486116 -0.0789048 0.0 
0.75245 0.264043 0.0 
0 0 0.0 
0.0513807 -0.00139867 0.0 
0.698192 0.235732 0.0 
0.73353 0.129369 0.0 
0.0240336 0.000519799 0.0 
0.102866 0.00178731 0.0 
0 0 0.0 
0.938006 0.04553 0.0 
0 0 0.0 
0 0 0.0 
0 0 0.0 
0.737334 0.208529 0.0 
0 0 0.0 
-2.00539e-242 8.07608e-244 0.0 
0 0 0.0 
0.671804 0.129477 0.0 
1.05178 0.11965 0.0 
0.00387049 -8.84008e-05 0.0 
0.267758 0.00177809 0.0 
0.222888 -0.0165941 0.0 
0.293083 0.011107 0.0 
0.298795 -0.0102972 0.0 
0.69941 0.158994 0.0 
0.115906 0.00539122 0.0 
0.00677964 -0.00119699 0.0 
0.0683737 -0.00573356 0.0 
0.848699 0.110607 0.0 
0.291669 0.0245623 0.0 
0.202788 -0.0196982 0.0 
0.00491434 -0.000430567 0.0 
0.970678 -0.0230931 0.0 
1 0 0.0 
0.0710011 0.00577413 0.0 
0.97469 -0.180135 0.0 
1.02192 0.0421998 0.0 
1.04654 -0.00105277 0.0 
0.573636 0.0498267 0.0 
0.995781 0.00834135 0.0 
0.271495 -0.108676 0.0 
1.10858 0.120903 0.0 
0 0 0.0 
0.772394 -0.347046 0.0 
0.0611283 0.00409229 0.0 
0.817522 -0.33825 0.0 
0.896398 -0.0406397 0.0 
0.8441 -0.381169 0.0 
0.480091 -0.453763 0.0 
0 0 0.0 
-3.89513e-96 8.73798e-98 0.0 
0.567184 0.171597 0.0 
0.973689 0.282501 0.0 
0.892767 -0.40129 0.0 
0 0 0.0 
-3.55739e-92 -3.74766e-94 0.0 
0.89168 -0.0623779 0.0 
0 0 0.0 
0.67468 0.0684753 0.0 
0.241146 0.0234925 0.0 
1.03756 0.224844 0.0 
0.145716 -0.0699626 0.0 
0.514277 0.0141682 0.0 
0.884215 -0.415087 0.0 
0.755732 0.00367363 0.0 
0.0701047 -0.00864052 0.0 
0.628071 -0.101127 0.0 
0.000783336 7.53817e-05 0.0 
1.00391 -0.00861883 0.0 
2.49591e-287 1.7448e-288 0.0 
0.827345 0.257858 0.0 
1.00733 0 0.0 
0 0 0.0 
-1.38093e-52 9.35376e-54 0.0 
0 0 0.0 
0.512825 0.0124099 0.0 
0.0680522 0.00101007 0.0 
0.296325 0.00992516 0.0 
6.06231e-137 -1.77036e-138 0.0 
0.000376114 2.7965e-05 0.0 
0.12647 -0.0107469 0.0 
0.832549 -0.205989 0.0 
0 0 0.0 
0 0 0.0 
0.0684104 0.0019123 0.0 
0 0 0.0 
1 0 0.0 
0.550874 -0.371096 0.0 
1.84604e-06 6.39533e-07 0.0 
0.00330362 -0.000108329 0.0 
0.395142 -0.000918663 0.0 
0 0 0.0 
-2.37512e-236 1.34525e-238 0.0 
0.030054 0.0019044 0.0 
0 0 0.0 
-6.54956e-52 4.0407e-53 0.0 
0.712563 -0.0274956 0.0 
0.763228 0.0797034 0.0 
0.000315866 2.29144e-05 0.0 
0 0 0.0 
0.671514 -0.0781695 0.0 
0.83454 0.303847 0.0 
0.0255071 0.00253229 0.0 
0.990208 -0.0435418 0.0 
0.00502847 0.00110903 0.0 
0.449316 -0.0105316 0.0 
-1.36801e-182 9.67211e-185 0.0 
0.998831 -0.00361592 0.0 
0.10424 0.00431191 0.0 
0.711859 0.109793 0.0 
1.07781 -0.233162 0.0 
0.858329 0.325695 0.0 
0 0 0.0 
0.76652 0.107854 0.0 
0.742185 -0.0319968 0.0 
0 0 0.0 
0 0 0.0 
0.477304 -0.000394641 0.0 
0.254181 0.0065956 0.0 
0.926087 0.285724 0.0 
6.7722e-285 4.73421e-286 0.0 
0.568874 -0.0112446 0.0 
0.736253 0.0935443 0.0 
0.898856 0.322188 0.0 
0.0158681 -0.00191382 0.0 
0.658146 -0.00647942 0.0 
0.872011 0.315126 0.0 
2.04001e-284 1.78581e-285 0.0 
0.137758 0.005412 0.0 
0.0598297 -0.00999997 0.0 
0.0574269 0.00314338 0.0 
0.0403821 0.00223235 0.0 
0.86046 0.336468 0.0 
0.405128 0.210395 0.0 
0.852824 -0.0013252 0.0 
0.115973 0.00557254 0.0 
9.79173e-281 -7.25922e-281 0.0 
0.844518 0.160593 0.0 
0.0475013 0.00183884 0.0 
0.99897 -0.00128632 0.0 
0.0257531 0.000623022 0.0 
0.882664 -0.239654 0.0 
0 0 0.0 
1.00557 0.0379444 0.0 
0.474073 -0.101548 0.0 
0.957393 -0.0426502 0.0 
0.798789 0.311628 0.0 
0.745247 -0.0284583 0.0 
0.65992 -0.0722116 0.0 
-5.61018e-193 2.44016e-194 0.0 
0.476492 -0.00668127 0.0 
0.0886902 0.00492762 0.0 
0.0162633 -0.00118813 0.0 
0.977898 0.277523 0.0 
0.00243936 -3.06682e-05 0.0 
0 0 0.0 
1.00118 0.00269515 0.0 
0.0323948 -0.0132351 0.0 
0.680671 0.0619161 0.0 
0.113382 -0.0116958 0.0 
0.00167941 0.000528143 0.0 
0.53603 0.274209 0.0 
0.929097 -0.210177 0.0 
0 0 0.0 
0.898399 0.0876225 0.0 
0.110832 0.00294504 0.0 
0.125859 0.00264908 0.0 
1.04833 0.14889 0.0 
0.10155 0.00418415 0.0 
0 0 0.0 
0.165778 0.00755249 0.0 
0.643214 0.0546088 0.0 
0.952799 -0.156689 0.0 
0.203874 0.00126909 0.0 
1.00049 0 0.0 
0.985241 0.272511 0.0 
0.536642 -0.00949267 0.0 
0 0 0.0 
0.849541 -0.0936657 0.0 
0.0002683 -1.48541e-05 0.0 
-9.53284e-50 -2.59905e-51 0.0 
0.616527 -0.33122 0.0 
0.0983655 0.00519272 0.0 
-2.13668e-97 -2.36359e-98 0.0 
0.139536 0.00636907 0.0 
0.219671 0.0188424 0.0 
0.647565 0.0733313 0.0 
0.00596733 -0.00109003 0.0 
0.987277 -0.041587 0.0 
0 0 0.0 
0.967403 -0.0433091 0.0 
0.437803 0.00740199 0.0 
5.3028e-143 5.10772e-144 0.0 
0.00246741 0.000171833 0.0 
0.499495 0.0078767 0.0 
1.00081 0.00287506 0.0 
0.486195 -0.00105041 0.0 
0.0695327 0.00350459 0.0 
0 0 0.0 
0.980982 -0.0623162 0.0 
0.0778807 -0.00960487 0.0 
0 0 0.0 
0 0 0.0 
0.137339 0.00253378 0.0 
0.669305 -0.144167 0.0 
0.999611 0 0.0 
0.208757 0.0086902 0.0 
0.181298 0.00782202 0.0 
0.832939 0.330973 0.0 
0.00103131 -0.000127954 0.0 
0.837071 -0.0122214 0.0 
0.979236 -0.0120931 0.0 
0.111603 0.00184206 0.0 
0.182186 -0.00570843 0.0 
0.575876 -0.0117221 0.0 
0.0760419 -0.000530284 0.0 
0 0 0.0 
0.212281 0.00911497 0.0 
1.02508 0.134874 0.0 
0.929456 0.127279 0.0 
0 0 0.0 
0.499891 0.0505658 0.0 
0 0 0.0 
0.0555279 -0.0109212 0.0 
2.45783e-272 -1.0966e-273 0.0 
0.120454 0.00535065 0.0 
0.126454 0.00260672 0.0 
0.886872 0.328752 0.0 
0.0160969 -0.00031644 0.0 
0.492727 -0.00833093 0.0 
0.234867 0.00533736 0.0 
0.807931 -0.0940848 0.0 
0.985105 0.198193 0.0 
0.975223 -0.131516 0.0 
0.358366 0.00343161 0.0 
0.0657009 0.00264408 0.0 
0.0529214 -0.00602376 0.0 
0.902118 0.113385 0.0 
0.084094 0.00397264 0.0 
0.805962 0.288594 0.0 
0.954639 -0.0145907 0.0 
0.0277651 -0.00356767 0.0 
0.622191 0.0979033 0.0 
0.185429 0.00803182 0.0 
0 0 0.0 
1e-307 1e-307 0.0 
0.223814 -0.00725885 0.0 
0.0777175 -0.00875319 0.0 
0.807602 -0.0861541 0.0 
0.373435 0.00563413 0.0 
0 0 0.0 
2.46881e-07 -9.13372e-09 0.0 
0.616726 0.193802 0.0 
0.776458 0.00206529 0.0 
1.01058 -0.0736789 0.0 
0.073595 0.00831598 0.0 
0.255137 0.00896491 0.0 
0.0765497 -0.00114167 0.0 
0 0 0.0 
0.566203 -0.0213442 0.0 
-1.24468e-52 -1.18304e-53 0.0 
1.00206 0 0.0 
1.00072 0 0.0 
0.322473 0.0100725 0.0 
0 0 0.0 
0.0149408 0.0015718 0.0 
0.0513969 0.0031094 0.0 
0.231049 -0.117395 0.0 
0.410055 -0.0129478 0.0 
0.131085 0.00612767 0.0 
1.06187 -0.054468 0.0 
0.89926 0.207149 0.0 
0.958065 0.015797 0.0 
0.634546 0.0767529 0.0 
-1.65589e-97 4.2235e-99 0.0 
0.188857 0.0206939 0.0 
1.04075 0.00555328 0.0 
0.38206 0.0196101 0.0 
1.00052 -0.322496 0.0 
3.23426e-06 -3.73662e-07 0.0 
0.993926 0.261703 0.0 
1.06431 0.14169 0.0 