<VTKFile type="UnstructuredGrid" version="0.1" byte_order="LittleEndian">
  <UnstructuredGrid>
    <Piece NumberOfPoints="14767" NumberOfCells="29381">
      <Points>
        <DataArray type = "Float64" NumberOfComponents="3" format="ascii">
0 0 0.0 
14 0 0.0 
14 8 0.0 
0 8 0.0 
4.70576 4.07232 0.0 
4.63345 3.98453 0.0 
4.73323 3.99502 0.0 
4.89811 4.01312 0.0 
4.08663 4.0179 0.0 
4.65551 4.03135 0.0 
4.70152 4.0256 0.0 
5.73477 4.27953 0.0 
4.90027 4.00761 0.0 
4.72437 4.04573 0.0 
4.72876 4.05423 0.0 
4.73191 3.99819 0.0 
4.65357 4.03943 0.0 
4.8862 4.00176 0.0 
4.70976 3.95697 0.0 
4.35279 4.07469 0.0 
4.89677 4.00723 0.0 
4.65295 4.06077 0.0 
4.56204 4.06636 0.0 
4.41096 3.95873 0.0 
4.68542 4.03668 0.0 
4.46946 3.96357 0.0 
8.40909 0 0.0 
5.46236 3.6689 0.0 
4.8456 3.98298 0.0 
5.02221 3.9755 0.0 
4.44998 3.97602 0.0 
4.69524 4.06305 0.0 
4.88534 4.01037 0.0 
4.92695 3.98953 0.0 
4.22248 3.95117 0.0 
4.35677 3.96541 0.0 
4.49719 3.96841 0.0 
4.70012 3.98532 0.0 
4.69353 4.05262 0.0 
4.05407 4.06926 0.0 
3.97752 4.28188 0.0 
4.69087 4.04085 0.0 
4.86623 4.02593 0.0 
4.33404 3.94703 0.0 
4.681 4.03766 0.0 
4.89319 4.00825 0.0 
4.71042 4.01144 0.0 
4.09074 4.02533 0.0 
4.72624 4.00342 0.0 
4.69557 4.07133 0.0 
3.9889 3.95538 0.0 
4.35452 3.98871 0.0 
4.08986 3.99481 0.0 
4.50428 4.03908 0.0 
5.50461 4.08184 0.0 
4.21119 4.0606 0.0 
4.6458 4.07153 0.0 
4.69174 3.98761 0.0 
4.71837 3.97102 0.0 
4.46799 4.07841 0.0 
4.68819 4.01529 0.0 
4.51194 4.04817 0.0 
4.42422 3.97614 0.0 
5.89207 3.94448 0.0 
5.54046 4.55222 0.0 
4.71617 4.0045 0.0 
4.40529 3.95286 0.0 
4.37739 4.05616 0.0 
4.69968 4.06143 0.0 
4.05789 4.06544 0.0 
4.10075 4.03591 0.0 
4.57272 4.06368 0.0 
4.01387 3.94852 0.0 
4.82616 4.02941 0.0 
4.60238 3.97454 0.0 
5.67677 4.26005 0.0 
4.48182 3.95193 0.0 
4.09973 4.06883 0.0 
4.33345 3.97014 0.0 
4.63179 3.98117 0.0 
5.3261 3.68836 0.0 
4.50915 3.97093 0.0 
4.09324 4.07263 0.0 
4.69001 4.06972 0.0 
4.41336 4.07221 0.0 
4.99135 4.00499 0.0 
4.08196 4.0201 0.0 
5.25181 4.20336 0.0 
4.5706 3.98086 0.0 
4.4634 4.06453 0.0 
6.08236 4.17147 0.0 
4.0628 4.03711 0.0 
4.32514 3.96008 0.0 
5.62505 5.12952 0.0 
4.76912 4.03828 0.0 
4.75925 4.02237 0.0 
4.09443 4.06582 0.0 
4.48728 4.03788 0.0 
6.35142 4.81064 0.0 
4.18728 3.97181 0.0 
4.08487 4.02497 0.0 
4.40823 4.08161 0.0 
3.99368 4.01426 0.0 
4.18814 3.93856 0.0 
4.51029 3.96647 0.0 
4.8842 3.9783 0.0 
4.48482 4.07568 0.0 
4.92632 4.01694 0.0 
4.47362 3.9616 0.0 
6.06466 4.2424 0.0 
4.54592 4.08131 0.0 
4.14056 3.98842 0.0 
4.41463 4.07022 0.0 
4.42936 3.97476 0.0 
4.33166 3.95585 0.0 
4.51281 3.99495 0.0 
4.47352 4.08105 0.0 
4.65036 4.08884 0.0 
5.12574 4.04017 0.0 
4.47711 3.94404 0.0 
4.90041 3.97499 0.0 
4.49323 4.02522 0.0 
4.51719 3.99666 0.0 
4.18895 3.93362 0.0 
4.41706 3.99018 0.0 
4.34713 3.96273 0.0 
4.09362 4.05831 0.0 
4.50605 4.00178 0.0 
4.55209 4.00197 0.0 
4.88378 3.98866 0.0 
5.44395 3.70586 0.0 
4.13606 3.94337 0.0 
4.10078 4.06208 0.0 
4.48002 4.06012 0.0 
4.50658 3.96133 0.0 
4.51748 3.99345 0.0 
4.47309 4.09121 0.0 
4.64638 4.05984 0.0 
4.54896 4.07106 0.0 
4.55084 3.9768 0.0 
4.2109 3.91203 0.0 
4.7697 4.01511 0.0 
4.29035 3.98133 0.0 
4.50858 3.9932 0.0 
4.49825 3.9905 0.0 
4.88061 3.97973 0.0 
4.50297 3.96038 0.0 
4.53886 4.04708 0.0 
4.59071 4.04355 0.0 
6.26273 4.11809 0.0 
4.06957 3.9879 0.0 
4.76163 4.04098 0.0 
5.36201 4.64602 0.0 
4.54735 4.06091 0.0 
4.12798 3.9969 0.0 
4.42494 4.05256 0.0 
4.71589 3.98071 0.0 
4.534 3.95254 0.0 
4.34342 3.96656 0.0 
4.65992 4.17345 0.0 
4.82517 3.98954 0.0 
4.43188 4.04796 0.0 
4.17766 4.07911 0.0 
4.52965 4.08584 0.0 
4.71789 3.9891 0.0 
4.78287 4.05966 0.0 
4.90012 4.00346 0.0 
4.90579 3.97626 0.0 
4.08831 4.06631 0.0 
5.03436 4.02959 0.0 
4.49942 3.99599 0.0 
6.31391 4.23014 0.0 
4.49751 3.98561 0.0 
4.91128 4.00748 0.0 
4.99493 4.03045 0.0 
5.04579 4.00726 0.0 
5.00514 4.02501 0.0 
4.15663 3.95455 0.0 
4.46239 4.09064 0.0 
5.0354 3.9479 0.0 
4.12818 3.96745 0.0 
4.49233 3.99728 0.0 
6.18165 4.20377 0.0 
4.31918 3.95092 0.0 
4.47999 4.14625 0.0 
4.46339 4.15411 0.0 
5.01576 3.97343 0.0 
4.03544 4.03253 0.0 
4.42665 3.97179 0.0 
4.42057 4.13079 0.0 
4.52576 4.0968 0.0 
4.18754 4.08337 0.0 
4.45405 3.95053 0.0 
4.44246 3.94048 0.0 
3.97234 4.03785 0.0 
4.71661 4.0479 0.0 
4.6389 3.96648 0.0 
4.82539 4.02745 0.0 
4.77658 4.05888 0.0 
4.18416 3.91428 0.0 
4.40423 4.12736 0.0 
4.9003 3.98852 0.0 
4.96937 4.01606 0.0 
4.93522 4.02075 0.0 
4.51027 4.08189 0.0 
4.69507 3.98627 0.0 
4.19517 4.06222 0.0 
4.19047 4.04045 0.0 
5.41586 4.04791 0.0 
4.64504 3.95511 0.0 
4.10531 3.94176 0.0 
4.12739 3.98301 0.0 
4.68723 3.99609 0.0 
4.75345 3.96806 0.0 
4.98125 4.0164 0.0 
4.53839 4.08411 0.0 
5.12007 3.48604 0.0 
4.72884 4.04324 0.0 
5.09346 4.02747 0.0 
4.16284 3.94858 0.0 
4.97647 3.97993 0.0 
5.02649 4.01958 0.0 
4.84392 4.00883 0.0 
5.08602 3.9894 0.0 
4.39865 4.07858 0.0 
4.07077 3.9283 0.0 
4.76172 4.05518 0.0 
5.5416 4.59574 0.0 
4.00881 3.92895 0.0 
3.71169 4.0171 0.0 
4.98973 4.00543 0.0 
4.15496 3.9147 0.0 
4.98989 4.00895 0.0 
4.44676 4.00231 0.0 
4.65879 4.05121 0.0 
4.08356 3.93758 0.0 
4.86277 4.01565 0.0 
4.24918 4.05614 0.0 
4.84786 4.00832 0.0 
4.44029 4.07893 0.0 
4.75884 4.03863 0.0 
4.00988 3.98803 0.0 
4.37336 4.06611 0.0 
3.95965 4.23039 0.0 
4.91424 3.97278 0.0 
4.98347 4.00418 0.0 
4.97435 4.00953 0.0 
5.4329 4.58309 0.0 
5.02947 3.9751 0.0 
4.85508 3.99006 0.0 
6.12172 3.765 0.0 
4.26826 4.03882 0.0 
4.98024 4.02012 0.0 
4.03462 3.97842 0.0 
5.04573 4.02296 0.0 
4.85301 4.03749 0.0 
5.01943 4.02273 0.0 
3.96199 4.03038 0.0 
5.00784 3.98128 0.0 
4.9337 4.028 0.0 
4.70344 4.0431 0.0 
5.07276 3.9841 0.0 
4.92857 4.02974 0.0 
4.46353 3.96985 0.0 
4.45677 4.00622 0.0 
4.99576 3.97692 0.0 
4.14369 3.94809 0.0 
4.92002 4.02517 0.0 
5.0781 4.01032 0.0 
4.98975 4.02392 0.0 
4.84051 3.98869 0.0 
5.05473 4.02241 0.0 
4.28602 4.07391 0.0 
4.04616 4.03182 0.0 
5.05753 4.01326 0.0 
5.04892 4.04471 0.0 
4.4038 3.95981 0.0 
4.94111 4.00411 0.0 
4.90736 3.98625 0.0 
4.84332 4.01837 0.0 
4.69983 4.04819 0.0 
4.98562 4.32916 0.0 
4.33201 4.06578 0.0 
5.09608 4.03838 0.0 
4.24619 3.97638 0.0 
4.86208 4.02383 0.0 
5.03851 4.01862 0.0 
4.95427 4.039 0.0 
3.23865 0 0.0 
6.00417 3.79304 0.0 
5.05218 4.03138 0.0 
4.11728 4.04788 0.0 
5.09764 4.0177 0.0 
4.30178 4.08091 0.0 
4.96462 4.01415 0.0 
4.16849 3.92371 0.0 
4.18839 4.09506 0.0 
5.29801 0.155784 0.0 
4.80145 4.02043 0.0 
4.90226 4.03143 0.0 
5.11511 3.98294 0.0 
5.0636 3.98872 0.0 
4.87554 4.04002 0.0 
4.56024 3.85496 0.0 
5.1546 4.02789 0.0 
4.99078 4.0281 0.0 
5.02586 3.97007 0.0 
4.7196 3.98332 0.0 
4.49658 3.95749 0.0 
5.03244 3.9826 0.0 
4.45089 4.16425 0.0 
4.89002 3.98689 0.0 
4.84399 3.99884 0.0 
4.98107 3.97981 0.0 
4.8972 3.97748 0.0 
4.63386 3.96596 0.0 
4.79684 3.99065 0.0 
4.89503 4.02851 0.0 
5.03617 4.00712 0.0 
4.34282 3.98302 0.0 
4.98218 4.02738 0.0 
4.40754 4.07685 0.0 
3.71047 4.2236 0.0 
4.94541 4.02607 0.0 
4.29289 3.89649 0.0 
5.1275 4.00443 0.0 
4.87082 4.04351 0.0 
5.05307 4.00543 0.0 
5.11024 4.01739 0.0 
4.83475 3.98883 0.0 
3.95045 4.00001 0.0 
5.0529 3.99699 0.0 
5.0736 3.9954 0.0 
5.84054 4.08767 0.0 
4.61909 4.05721 0.0 
5.05185 3.9887 0.0 
5.06365 4.004 0.0 
4.74921 4.04567 0.0 
4.31082 3.97236 0.0 
4.71996 3.97872 0.0 
4.60063 4.17007 0.0 
4.87667 3.98095 0.0 
4.87372 4.04682 0.0 
4.33917 3.98733 0.0 
5.15116 3.98594 0.0 
0 6.07671 0.0 
3.98281 4.00626 0.0 
5.77495 4.6116 0.0 
5.13955 4.01495 0.0 
5.87526 3.59707 0.0 
4.7219 4.04658 0.0 
4.43093 4.08688 0.0 
5.08331 3.95747 0.0 
4.23648 3.9654 0.0 
4.69887 4.25181 0.0 
4.69443 3.97421 0.0 
4.80563 3.98958 0.0 
5.66804 3.8439 0.0 
4.70268 3.99839 0.0 
4.71607 4.03635 0.0 
4.69144 4.0034 0.0 
3.99466 4.028 0.0 
5.92368 4.00666 0.0 
4.01734 3.98554 0.0 
4.66223 3.9584 0.0 
5.15424 4.01254 0.0 
4.89678 4.00895 0.0 
5.96726 3.73446 0.0 
4.7962 3.99778 0.0 
5.24133 3.72196 0.0 
4.64548 3.96548 0.0 
4.06642 3.96807 0.0 
4.98463 4.01475 0.0 
4.81089 3.99146 0.0 
4.78278 4.06635 0.0 
6.03999 3.71589 0.0 
4.69163 3.99013 0.0 
5.80476 3.99357 0.0 
4.9513 4.02316 0.0 
4.77057 4.04846 0.0 
4.63757 3.95746 0.0 
4.47096 4.0647 0.0 
4.81598 4.05326 0.0 
5.01224 3.97834 0.0 
5.66128 3.725 0.0 
4.01473 3.98467 0.0 
4.81721 3.96281 0.0 
5.81851 4.38012 0.0 
4.61748 3.98164 0.0 
4.11464 4.05465 0.0 
4.95658 4.02206 0.0 
5.96393 3.65701 0.0 
6.21609 3.11757 0.0 
4.05624 3.8096 0.0 
4.59129 4.06661 0.0 
4.20636 3.90536 0.0 
4.97718 3.99409 0.0 
4.83556 3.98119 0.0 
4.28896 4.04743 0.0 
4.31146 3.96591 0.0 
4.82108 4.00637 0.0 
4.8846 4.03768 0.0 
4.70198 3.99264 0.0 
4.55973 3.96896 0.0 
4.24817 3.98524 0.0 
4.91832 3.96378 0.0 
4.71455 3.97583 0.0 
4.65944 3.9646 0.0 
4.88218 4.04811 0.0 
4.80353 4.01018 0.0 
4.77275 4.32325 0.0 
4.70627 3.99452 0.0 
4.40394 4.07354 0.0 
5.03836 3.95882 0.0 
4.6218 3.97935 0.0 
4.68855 3.99396 0.0 
4.85806 3.99347 0.0 
4.84547 4.04144 0.0 
4.82443 3.98399 0.0 
4.692 3.9981 0.0 
3.99149 4.00088 0.0 
4.66367 3.97692 0.0 
4.71425 4.04272 0.0 
4.25312 4.08002 0.0 
4.7242 4.0531 0.0 
4.58933 3.82589 0.0 
4.62381 4.03109 0.0 
5.00418 4.02108 0.0 
5.03735 3.97504 0.0 
4.98174 4.03773 0.0 
4.70184 4.00405 0.0 
4.68265 4.04899 0.0 
4.07882 3.9972 0.0 
4.82786 3.96912 0.0 
4.06755 4.00847 0.0 
4.72838 4.02896 0.0 
4.27296 4.08822 0.0 
4.86239 4.00058 0.0 
4.70575 4.03452 0.0 
4.70147 4.03607 0.0 
4.09877 4.0486 0.0 
4.00975 4.04675 0.0 
4.4226 3.97433 0.0 
4.28073 4.08309 0.0 
4.7077 4.00209 0.0 
4.66908 4.04984 0.0 
4.85567 4.04421 0.0 
4.70835 3.99677 0.0 
4.55884 4.05112 0.0 
5.1122 4.03802 0.0 
4.01925 4.05221 0.0 
4.43463 4.07635 0.0 
4.85139 4.0473 0.0 
4.79168 4.01495 0.0 
4.47658 4.064 0.0 
4.03695 4.06573 0.0 
2.67742 0 0.0 
4.69684 3.99414 0.0 
4.09966 3.96463 0.0 
4.59455 3.96264 0.0 
4.06983 4.04597 0.0 
4.61356 3.99295 0.0 
4.40723 3.87876 0.0 
3.99982 3.9871 0.0 
4.31163 3.98156 0.0 
4.72164 4.04939 0.0 
5.92452 4.53779 0.0 
4.47696 4.05736 0.0 
4.79858 4.00959 0.0 
4.83073 4.01126 0.0 
4.11871 4.04992 0.0 
4.81885 4.01423 0.0 
[...]
<PointData>
  <DataArray type = "Float64" Name="Vitesse" NumberOfComponents="3" format="ascii">
1 0 0.0 
0.999812 0 0.0 
1.00025 0 0.0 
1 0 0.0 
0.230165 -0.0240499 0.0 
2.78256e-06 -9.99296e-08 0.0 
-3.68517e-106 -6.98669e-108 0.0 
-1.30341e-104 5.29845e-105 0.0 
1.92846e-152 -5.08129e-153 0.0 
2.66608e-153 7.20838e-155 0.0 
3.31369e-153 1.04608e-153 0.0 
0.794568 -0.101532 0.0 
-2.3307e-110 1.58543e-110 0.0 
0.0287264 -0.00385955 0.0 
0.103546 -0.0128974 0.0 
-1.82877e-108 -3.46705e-110 0.0 
3.95665e-153 1.06977e-154 0.0 
-5.71616e-107 4.49116e-108 0.0 
0.246398 0.0130706 0.0 
0.129176 -0.000869362 0.0 
-1.25216e-107 4.95022e-108 0.0 
0.0911734 -0.00879491 0.0 
0.0777123 -0.00611322 0.0 
0.148647 0.00356055 0.0 
-1.74592e-109 3.41384e-110 0.0 
0.10673 0.00333607 0.0 
1.00091 0 0.0 
1.11386 0.150235 0.0 
0.0851049 0.00257148 0.0 
0.233153 0.0206207 0.0 
0.000129124 2.57267e-06 0.0 
0.146474 -0.0153941 0.0 
-7.09798e-108 2.87573e-108 0.0 
0.0627745 0.00158685 0.0 
0.333777 -0.00939287 0.0 
0.0629403 0.00139568 0.0 
0.0683168 0.0029595 0.0 
0.00121403 2.37693e-05 0.0 
0.0581755 -0.00584978 0.0 
0.918916 0.294106 0.0 
0.951269 0.0915468 0.0 
-3.606e-105 7.03812e-106 0.0 
0.0218284 -0.00273896 0.0 
0.316767 -0.00128999 0.0 
3.42347e-153 1.35441e-154 0.0 
-3.68718e-106 1.45839e-106 0.0 
6.91928e-153 1.91096e-153 0.0 
1.86029e-152 -4.64915e-153 0.0 
-1.25689e-108 -2.38286e-110 0.0 
0.214837 -0.0221612 0.0 
0.863884 -0.307723 0.0 
3.51086e-153 1.12855e-154 0.0 
1.76077e-152 -7.38878e-153 0.0 
1.60844e-153 -3.83559e-155 0.0 
0.48558 0.0152932 0.0 
3.66533e-52 4.68425e-53 0.0 
0.180887 -0.0169024 0.0 
1.21216e-06 9.90236e-11 0.0 
0.130717 0.00662988 0.0 
0.184425 -0.00435471 0.0 
3.16674e-153 7.15732e-154 0.0 
-1.78369e-110 1.28303e-111 0.0 
1.6025e-52 -7.78893e-54 0.0 
0.82286 0.0800304 0.0 
1.1761 -0.100823 0.0 
-1.33509e-109 -2.53112e-111 0.0 
0.218153 0.00353541 0.0 
1.16788e-153 -9.51914e-155 0.0 
0.136949 -0.0143712 0.0 
0.906444 0.2923 0.0 
-1.57274e-105 -3.80735e-106 0.0 
0.0579611 -0.00429617 0.0 
0.982519 -0.341198 0.0 
0.00649278 -0.000847148 0.0 
0.0502955 0.00363092 0.0 
0.74213 -0.0890819 0.0 
0.228382 0.00531447 0.0 
0.810715 0.200252 0.0 
0.00141923 9.24938e-05 0.0 
0.00835374 -1.29463e-05 0.0 
1.11197 0.102062 0.0 
0.0488739 0.00131926 0.0 
0.90076 0.232734 0.0 
0.197498 -0.020485 0.0 
0.0818315 -0.00101384 0.0 
0.0234637 -0.00673729 0.0 
1.84976e-152 -4.44422e-153 0.0 
0.53888 -0.0454553 0.0 
4.72747e-05 9.44287e-07 0.0 
0.000602003 4.0911e-05 0.0 
0.886555 -0.0569414 0.0 
1.97068e-50 6.99375e-51 0.0 
0.128435 0.000754921 0.0 
0.9729 -0.0484066 0.0 
0.0144705 -0.00203376 0.0 
2.42054e-153 -6.19268e-155 0.0 
0.776538 0.198228 0.0 
8.70216e-154 -2.18155e-155 0.0 
1.05419 -0.00962354 0.0 
-6.42175e-104 7.24711e-105 0.0 
1.80997e-152 -4.19764e-153 0.0 
0.239482 -0.00131622 0.0 
0.369365 0.146967 0.0 
0.700795 -0.0505755 0.0 
0.0891785 0.00246095 0.0 
0.144516 0.00821602 0.0 
0.150546 -0.00596093 0.0 
0.023627 -0.0032141 0.0 
0.127464 0.00387597 0.0 
0.890592 -0.0843865 0.0 
0.231998 -0.0106106 0.0 
2.8375e-153 -7.61701e-154 0.0 
0.051261 6.61094e-05 0.0 
9.88686e-52 1.63087e-53 0.0 
0.186777 0.00191874 0.0 
1.01638e-153 5.34572e-155 0.0 
0.221984 -0.00531298 0.0 
0.337287 -0.0260342 0.0 
0.274945 -0.0623423 0.0 
0.31542 0.00483724 0.0 
0.181849 0.00919962 0.0 
2.90157e-155 -7.24227e-157 0.0 
1.61648e-153 8.83267e-155 0.0 
0.806856 -0.0641866 0.0 
4.83259e-153 2.94737e-154 0.0 
0.0943672 0.001946 0.0 
0.559277 0.140827 0.0 
8.8689e-155 2.10461e-157 0.0 
4.75815e-153 2.62643e-154 0.0 
0.0501793 0.0040828 0.0 
1.07224 0.150728 0.0 
0.768186 -0.0828691 0.0 
0.625367 0.149428 0.0 
-4.11387e-105 5.34601e-106 0.0 
0.136551 0.0040664 0.0 
2.07624e-153 1.11536e-154 0.0 
0.366843 -0.00352384 0.0 
0.077837 -0.00804965 0.0 
0.119804 -0.00582727 0.0 
0.0106742 0.000204752 0.0 
1.05948 -0.0970162 0.0 
2.32016e-153 -1.82717e-154 0.0 
3.78435e-153 -5.40642e-154 0.0 
8.73959e-154 3.75512e-155 0.0 
1.0925e-153 1.77506e-155 0.0 
0.130192 0.00773608 0.0 
0.145018 0.00441579 0.0 
4.16595e-153 -4.22848e-154 0.0 
5.25117e-153 -2.31614e-154 0.0 
0.945672 -0.0330684 0.0 
-3.76112e-108 7.98688e-109 0.0 
0.0278012 -0.0044005 0.0 
1.20717 -0.0478067 0.0 
0.0145923 -0.00046558 0.0 
6.95977e-153 -2.2271e-153 0.0 
6.15523e-153 -5.56425e-154 0.0 
0.0449951 0.00142129 0.0 
0.228259 0.00659008 0.0 
0.0468338 0.00118517 0.0 
0.924609 0.0283558 0.0 
0.0175873 0.00142865 0.0 
5.3644e-153 -4.84935e-154 0.0 
0.641301 0.0948075 0.0 
0.284227 -0.010163 0.0 
3.61954e-53 -2.2344e-54 0.0 
0.192583 -0.0239401 0.0 
1.68841e-152 1.37079e-153 0.0 
0.173349 0.0089302 0.0 
0.822391 0.219325 0.0 
0.201072 -0.0599974 0.0 
5.28962e-154 3.17036e-156 0.0 
0.9468 -0.0492715 0.0 
-1.33059e-109 9.22533e-111 0.0 
-2.34348e-105 1.59349e-105 0.0 
0.179976 -0.044209 0.0 
0.142349 -0.0354487 0.0 
0.159926 -0.0474048 0.0 
0.374724 -0.0204992 0.0 
0.362952 -0.00296606 0.0 
0.424721 0.0274213 0.0 
0.0546526 -0.00484471 0.0 
5.21047e-154 -8.53562e-156 0.0 
0.921467 -0.0608799 0.0 
0.262961 -0.00065411 0.0 
0.965829 0.0474043 0.0 
1.01291 0.0570932 0.0 
0.247084 0.022985 0.0 
0.247816 0.0919724 0.0 
0.0143535 0.000362149 0.0 
0.92209 0.0481122 0.0 
0.421005 -0.00764504 0.0 
0.705287 0.0988325 0.0 
0.243887 0.00419035 0.0 
0.36464 0.00224478 0.0 
0.685428 0.110284 0.0 
0.0388 -0.00522994 0.0 
0.13433 0.00683127 0.0 
0.00176881 -0.000228577 0.0 
0.182126 -0.0228035 0.0 
1.07979 -0.111649 0.0 
0.912683 0.0491015 0.0 
0.0596284 0.00237758 0.0 
0.066846 -0.012414 0.0 
0.0587441 -0.00974863 0.0 
0.234445 -0.00801993 0.0 
0.000514879 4.20613e-08 0.0 
0.0267178 0.00266358 0.0 
5.50638e-156 1.20837e-156 0.0 
0.435034 0.0195393 0.0 
0.235723 0.0113398 0.0 
0.945677 -0.142247 0.0 
-1.89441e-108 2.48312e-109 0.0 
6.96867e-153 1.4263e-153 0.0 
0.173008 0.00879295 0.0 
0.0851555 -0.0178042 0.0 
0.263566 -0.0107738 0.0 
1.20533 0.00753415 0.0 
0.0131359 -0.00228498 0.0 
0.234496 -0.0598981 0.0 
0.524267 -0.0356999 0.0 
0.177171 0.0112337 0.0 
0.151156 -0.0501093 0.0 
1.04841e-152 -8.46724e-154 0.0 
0.228519 -0.0172341 0.0 
0.190409 -0.00198185 0.0 
1.11068 -0.232399 0.0 
0.142076 -0.0178392 0.0 
1.19686 -0.0955576 0.0 
0.980153 -0.270168 0.0 
0.930519 -0.0147698 0.0 
0.0239345 -0.00604256 0.0 
1.11116 -0.135156 0.0 
0.0503552 -0.0126813 0.0 
1.29497e-153 4.40077e-155 0.0 
0.0158426 -0.000172994 0.0 
1.07756 -0.205233 0.0 
-1.5289e-109 3.55819e-110 0.0 
-1.02465e-104 -6.3856e-106 0.0 
-6.21321e-111 2.24688e-112 0.0 
0.191944 -0.0044517 0.0 
0.00346749 -0.000444538 0.0 
0.0990507 -0.0553365 0.0 
9.29888e-05 1.90837e-06 0.0 
0.935798 0.0980762 0.0 
0.207063 0.0107795 0.0 
0.00484554 -0.000665323 0.0 
0.0304133 -0.00562673 0.0 
1.20328 -0.0725112 0.0 
0.240526 0.018304 0.0 
0.0222954 0.00255083 0.0 
0.970774 0.0577409 0.0 
1.8547e-156 -2.00398e-157 0.0 
0.106859 -0.0223501 0.0 
0.0973148 -0.0276083 0.0 
0.18403 -0.0558105 0.0 
0.0918913 -0.0132126 0.0 
0.158889 -0.0520626 0.0 
0.693265 0.0535211 0.0 
0.178758 0.0215456 0.0 
0.103536 -0.0167338 0.0 
3.43688e-52 -8.29745e-53 0.0 
0.232236 -0.00707427 0.0 
0.109339 -0.0174476 0.0 
0.0437829 0.00283165 0.0 
7.03161e-154 3.95193e-156 0.0 
0.213125 0.0199329 0.0 
0.607042 -0.0540119 0.0 
0.0716434 -0.0117925 0.0 
0.190184 -0.0440429 0.0 
0.140653 -0.0338788 0.0 
0.0300883 0.00114275 0.0 
0.190413 -0.0557652 0.0 
0.164187 0.0105358 0.0 
0.00023346 8.45191e-05 0.0 
0.168774 -0.0458501 0.0 
0.264988 -0.0685643 0.0 
0.136059 0.00357966 0.0 
-5.25654e-104 1.08273e-105 0.0 
0.0841017 0.00517009 0.0 
-1.48821e-110 2.13413e-111 0.0 
0.0266198 -0.00198407 0.0 
0.92722 0.107769 0.0 
1.80767e-53 -1.04309e-54 0.0 
0.26188 -0.0653569 0.0 
-4.89733e-105 1.16577e-105 0.0 
0.00601744 -0.000446622 0.0 
0.160963 -0.0505021 0.0 
0.187727 -0.0323998 0.0 
1.00639 0 0.0 
0.952283 0.0795986 0.0 
0.219311 -0.0625901 0.0 
2.5885e-52 4.01175e-53 0.0 
0.219447 -0.0524136 0.0 
0.313827 0.0132092 0.0 
0.0483627 -0.00921467 0.0 
1.02204 -0.108469 0.0 
0.914649 0.136194 0.0 
1.00772 0.000292494 0.0 
7.43461e-153 -8.04632e-154 0.0 
0.0954481 -0.0143748 0.0 
0.290458 -0.0116097 0.0 
0.198654 -0.0108598 0.0 
0.129335 -0.0176053 0.0 
1.06277 -0.0422736 0.0 
0.270012 -0.052349 0.0 
0.164173 -0.0390746 0.0 
0.277236 0.0219183 0.0 
0.0244448 -0.000616018 0.0 
0.172458 0.00491459 0.0 
0.188424 0.010467 0.0 
1.04578 0.0648128 0.0 
0.0687123 0.00288505 0.0 
-7.48401e-105 2.57357e-106 0.0 
0.181026 0.0125936 0.0 
0.158374 0.00777996 0.0 
0.13681 0.00660962 0.0 
0.000484937 5.40945e-05 0.0 
0.0692376 -0.0105249 0.0 
0.126124 -0.0333161 0.0 
-2.85865e-107 3.93953e-109 0.0 
0.151387 -0.0324686 0.0 
0.158248 -0.00276015 0.0 
0.93581 0.0196505 0.0 
0.103315 -0.0174047 0.0 
1.06982 -0.0762046 0.0 
0.247468 -0.0369957 0.0 
0.148394 -0.0197309 0.0 
0.152061 -0.0338544 0.0 
0.230095 -0.0515563 0.0 
0.0277835 0.000808303 0.0 
0.723781 -0.0782045 0.0 
0.15688 -0.0205476 0.0 
0.191739 -0.0229928 0.0 
0.740589 0.00963839 0.0 
0.033 -0.00232986 0.0 
0.181696 -0.00724583 0.0 
0.167155 -0.0337875 0.0 
0.0532135 -0.00656769 0.0 
-3.09336e-104 5.10979e-105 0.0 
0.0648121 0.00222427 0.0 
0.970144 0.0392802 0.0 
0.117662 0.0071213 0.0 
0.171816 -0.0226508 0.0 
2.4699e-153 7.90655e-155 0.0 
0.32139 -0.0135215 0.0 
1 0 0.0 
0.476829 -0.068684 0.0 
1.16755 -0.091339 0.0 
0.252875 -0.046625 0.0 
1.05987 0.0968838 0.0 
0.0330605 -0.00402912 0.0 
0.320082 -0.000417182 0.0 
0.391963 0.0151214 0.0 
0.0485039 -0.000697618 0.0 
1.02457 0.0862261 0.0 
0.0912157 0.00530099 0.0 
0.0074089 0.000217792 0.0 
0.867029 0.153657 0.0 
7.87315e-153 1.89289e-153 0.0 
2.67503e-58 -1.73121e-59 0.0 
5.43717e-153 1.24628e-153 0.0 
0.565739 0.238128 0.0 
0.806168 0.0451167 0.0 
0.0047123 -0.00237592 0.0 
0.21415 0.0102326 0.0 
0.266745 -0.04093 0.0 
-3.49861e-106 1.38313e-106 0.0 
1.00044 0.0865439 0.0 
7.07568e-56 3.01158e-57 0.0 
1.0566 0.0602432 0.0 
0.145446 0.00745553 0.0 
0.30188 -0.036857 0.0 
0.0796585 -0.0174645 0.0 
1.69367e-52 6.30705e-54 0.0 
0.239289 -0.028505 0.0 
1.00623 0.0699252 0.0 
-1.29826e-105 -4.18269e-107 0.0 
0.751045 0.0765264 0.0 
0.0914054 -0.0158136 0.0 
0.0972652 -0.0131878 0.0 
0.212438 0.0101883 0.0 
0.000519756 -2.46588e-05 0.0 
0.172381 -0.0217414 0.0 
0.205277 0.0221704 0.0 
1.02761 0.162603 0.0 
0.148312 -0.0745913 0.0 
0.246199 0.0131009 0.0 
0.942248 -0.124091 0.0 
0.000724815 -2.31515e-05 0.0 
0.196483 0.0383679 0.0 
0.0902357 -0.0161879 0.0 
1.04244 0.0789361 0.0 
0.967846 0.017607 0.0 
1.03877 -0.129004 0.0 
0.0981991 -0.00796047 0.0 
1.10483 -0.107287 0.0 
0.0413734 0.00300132 0.0 
0.0962094 0.00435445 0.0 
4.90451e-154 -5.29886e-155 0.0 
0.0481964 0.0023383 0.0 
6.37581e-153 -7.71029e-154 0.0 
0.121329 -0.0172173 0.0 
-2.92042e-106 -9.05916e-108 0.0 
0.0812527 0.00403962 0.0 
7.10639e-153 -1.20349e-153 0.0 
0.282107 0.0148811 0.0 
0.0868083 0.00421162 0.0 
0.159166 0.00731526 0.0 
0.185844 -0.0246669 0.0 
5.45067e-153 -5.43305e-154 0.0 
1.02468 0.125874 0.0 
-9.92553e-107 -1.83652e-108 0.0 
0.102832 -0.00278 0.0 
0.360866 0.0238653 0.0 
0.0182304 -0.000189753 0.0 
-1.02809e-109 -3.31227e-111 0.0 
5.92157e-06 5.23518e-07 0.0 
0.113846 -0.015653 0.0 
0.0651946 0.00447194 0.0 
-4.16024e-111 -1.34033e-112 0.0 
0.31142 -0.198113 0.0 
0.0549437 0.00105425 0.0 
7.36248e-05 -8.71619e-06 0.0 
0.390975 0.0316113 0.0 
0.0899861 -0.0111359 0.0 
1.10791 -0.0510043 0.0 
1.83458e-154 8.94413e-156 0.0 
0.138626 -0.0438887 0.0 
0.24685 0.0155152 0.0 
0.205043 -0.0421665 0.0 
6.66201e-153 1.67449e-153 0.0 
0.0198636 -0.00243323 0.0 
-5.92738e-111 1.2587e-111 0.0 
0.198366 0.0105806 0.0 
1.72005e-152 -4.27076e-153 0.0 
5.51577e-153 1.8918e-153 0.0 
0.544157 0.0398877 0.0 
-3.16263e-106 1.1437e-107 0.0 
-7.21811e-106 7.26762e-107 0.0 
-1.07985e-106 1.08726e-107 0.0 
0.0679484 0.0133829 0.0 
0.743078 0.305582 0.0 
0.000186289 7.9125e-06 0.0 
0.403493 0.0253789 0.0 
7.92762e-153 2.0164e-153 0.0 
0.0134872 -0.00233415 0.0 
0.140821 -0.0188748 0.0 
-7.75217e-108 -1.43438e-109 0.0 
-3.2533e-105 9.89407e-106 0.0 
0.266353 -0.0631709 0.0 
0.796388 0.316422 0.0 
0.15131 -0.00250583 0.0 
0.158443 -0.020821 0.0 
5.06166e-153 -4.94432e-154 0.0 
0.000576957 -4.30763e-05 0.0 
0.879137 0.30114 0.0 
1.00492 0 0.0 
-2.50196e-107 -8.06072e-109 0.0 
0.239786 -0.0265473 0.0 
0.149744 0.00781164 0.0 
0.321337 0.0951125 0.0 
8.02704e-153 8.14238e-154 0.0 
1.06769 -0.0596009 0.0 
0.554627 -0.505805 0.0 
-1.82478e-105 3.08584e-106 0.0 
0.0563332 -0.00709089 0.0 
1.08786 -0.0933992 0.0 
-9.86218e-107 1.28144e-107 0.0 
4.74365e-153 -4.50064e-154 0.0 
8.43659e-153 -1.0467e-153 0.0 
0.00117873 7.98322e-05 0.0 
7.575e-153 -1.01119e-153 0.0 
-3.20371e-105 1.26727e-105 0.0 
-1.07237e-106 2.87495e-107 0.0 
0.0122501 -0.000471329 0.0 
0.0126892 -0.00094616 0.0 
-2.07499e-104 1.19252e-104 0.0 
1.22321e-53 5.62827e-54 0.0 
1.05343e-152 -1.38937e-153 0.0 
0.165544 -0.0206661 0.0 
0.494993 0.00237308 0.0 
0.205273 0.0110606 0.0 
0.00275454 0.000234025 0.0 
0.581951 0.312 0.0 
0.627296 -0.278488 0.0 
3.78405e-05 -4.89001e-06 0.0 
0.0558778 -0.00671314 0.0 
1.11463 -0.217171 0.0 
0.14215 -0.0182518 0.0 
6.57435e-153 -7.34401e-154 0.0 
-7.09246e-107 4.35706e-108 0.0 
0.123454 -0.0330668 0.0 
0.212699 -0.0190365 0.0 
3.92171e-53 -8.82077e-54 0.0 
0.00342666 0.000144132 0.0 
-7.46934e-112 -6.27174e-113 0.0 
1.00042 0.000466147 0.0 
-3.32189e-109 -6.14649e-111 0.0 
0.0372453 0.00224129 0.0 
-6.63886e-109 1.21894e-109 0.0 
0.123654 -0.0110956 0.0 
0.0453086 -0.00407776 0.0 
6.78683e-153 2.32768e-153 0.0 
4.59878e-153 -4.42951e-154 0.0 
0.797232 -0.470112 0.0 
0.382177 0.0277467 0.0 
0.143321 0.015737 0.0 
4.2126e-153 -7.87849e-154 0.0 
0.245581 -0.0207201 0.0 
-7.86232e-106 3.47747e-106 0.0 
2.68716e-153 -5.53477e-155 0.0 
1.08483 -0.0503092 0.0 
-3.047e-111 2.57387e-112 0.0 
0.120537 -0.00272601 0.0 
1.02602 0.158611 0.0 
-1.18681e-109 1.19495e-110 0.0 
0.90884 0.108692 0.0 
-1.18072e-103 -4.20227e-104 0.0 
0.775304 0.336126 0.0 
0.709531 0.318667 0.0 
0.15587 0.0214425 0.0 
4.6891e-153 1.68508e-153 0.0 
0.873734 -0.118486 0.0 
8.67715e-153 -1.24709e-153 0.0 
0.106057 0.00346709 0.0 
0.011706 -0.00073944 0.0 
0.110894 0.00563035 0.0 
0.188412 0.0212486 0.0 
-3.59761e-107 3.18035e-108 0.0 
9.44408e-52 2.15155e-53 0.0 
1.00329 0.0298482 0.0 
0.170266 0.00463228 0.0 
-3.93312e-105 3.09023e-106 0.0 
0.118666 -0.0149108 0.0 
0.147569 0.0108952 0.0 
0.690402 -0.0636637 0.0 
6.93841e-53 -7.27987e-54 0.0 
0.164592 -0.0206813 0.0 
0.165743 -0.0220775 0.0 
0.171261 -0.0148552 0.0 
5.40996e-153 1.74694e-153 0.0 
1.08213 -0.193196 0.0 
1.00875 0.000412708 0.0 
0.0398937 -0.00388468 0.0 
0.779573 -0.147974 0.0 
3.29448e-153 -1.91383e-154 0.0 
0.878053 -0.39339 0.0 
-2.63166e-104 1.04039e-104 0.0 
4.29963e-153 -5.85417e-155 0.0 
2.63996e-153 -5.8827e-155 0.0 
0.775055 -0.0865714 0.0 
0.117565 -0.0112152 0.0 
2.55936e-52 -2.33208e-53 0.0 
3.09374e-153 7.08065e-155 0.0 
0.999996 -0.000273741 0.0 
0.775814 -0.109057 0.0 
0.22015 0.00585772 0.0 
1.10611 -0.241815 0.0 
0.126576 -0.00461702 0.0 
2.98069e-153 -2.69364e-154 0.0 
0.924234 -0.175679 0.0 
0.130228 0.00449717 0.0 
0.490072 0.0223771 0.0 
0.131783 -0.0128536 0.0 
0.878098 -0.0995909 0.0 
0.969832 -2.88089e-05 0.0 
0.00676763 -0.000406379 0.0 
0.642636 0.251713 0.0 
7.13335e-153 -1.36801e-153 0.0 
4.38966e-153 -2.7855e-154 0.0 
0.11902 -0.0113875 0.0 
-1.49845e-107 -4.50625e-108 0.0 
0.209692 -0.0241031 0.0 
0.0624757 -0.00585154 0.0 
0.843319 0.146595 0.0 
0.832819 -0.102922 0.0 
0.628867 -0.0449176 0.0 
-1.0603e-106 -6.22531e-108 0.0 
0.0829936 -0.00842415 0.0 
1.07872 -0.120762 0.0 
-5.82018e-109 -3.6444e-110 0.0 
0.113305 -0.0138739 0.0 
0.472375 -0.0435022 0.0 
0.141189 -0.0135807 0.0 
0.0596421 -0.000556174 0.0 
0.0286828 0.000956536 0.0 
0.162681 0.00512499 0.0 
0.257266 -0.0244099 0.0 
0.621091 0.335487 0.0 
-4.37808e-106 -1.3489e-106 0.0 
0.104913 -0.0100943 0.0 
0.576661 0.267992 0.0 
0.187174 -0.0231047 0.0 
4.4237e-55 -6.41434e-57 0.0 
0.705369 0.292042 0.0 
-1.2841e-107 3.08024e-108 0.0 
0.0446027 -0.0051669 0.0 
1.14547 -0.0637043 0.0 
0.361751 0.0491538 0.0 
0.0445583 0.00363802 0.0 
0.125107 0.016823 0.0 
0.990538 0.0293686 0.0 
0.0373834 -0.00450877 0.0 
0.837817 -0.0691424 0.0 
7.99688e-153 -1.25374e-153 0.0 
4.86368e-05 -1.67598e-06 0.0 
0.000161871 2.01011e-05 0.0 
0.131074 -0.0416984 0.0 
-8.25928e-105 8.47916e-106 0.0 
0.498338 -0.0274324 0.0 
0.0400437 0.00253769 0.0 
6.9128e-153 -2.10103e-153 0.0 
0.194829 0.0166131 0.0 
0.122569 -0.0114274 0.0 
-1.58536e-104 3.11365e-105 0.0 
1.01851 0.0484986 0.0 
0.0738549 -0.00771517 0.0 
0.00315167 -0.000142906 0.0 
0.0380733 -0.00333807 0.0 
0.0723872 -0.00886115 0.0 
0.222623 0.0116794 0.0 
4.61351e-153 3.10164e-154 0.0 
0.236515 -0.0224348 0.0 
0.13978 -0.0145121 0.0 
1.0538 -0.231773 0.0 
1.17009 -0.0846546 0.0 
-6.17523e-105 6.49493e-107 0.0 
0.971043 0.0381431 0.0 
0.0985415 -0.00917609 0.0 
0.160185 -0.00936359 0.0 
0.763958 -0.0433508 0.0 
0.999797 -0.000310781 0.0 
0.118781 -0.0125673 0.0 
9.10736e-153 -2.62389e-153 0.0 
0.00107192 -7.34746e-05 0.0 
0.61097 0.0530906 0.0 
0.172363 -0.0174924 0.0 
5.44774e-56 -7.2378e-58 0.0 
1.00189e-152 -2.26696e-153 0.0 
0.999761 -6.27682e-05 0.0 
0.821751 0.153054 0.0 
7.51708e-153 -1.91612e-153 0.0 
5.29002e-153 -8.25605e-154 0.0 
0.0128184 -0.00191803 0.0 
0.00633022 -0.00136937 0.0 
0.155361 -0.000543015 0.0 
0.697051 0.252724 0.0 
-1.91547e-106 4.27653e-107 0.0 
1.04109 -0.00559557 0.0 
-9.97287e-105 2.11785e-105 0.0 
0.800823 0.215266 0.0 
1.39753e-52 -1.79941e-53 0.0 
1.02126e-52 2.05198e-54 0.0 
0.0674653 -0.00962537 0.0 
0.756296 0.0702587 0.0 
0.122405 -0.0156479 0.0 
-2.39298e-105 -8.51682e-106 0.0 
0.858877 0.311378 0.0 
7.0441e-54 1.45649e-55 0.0 
1.14746 -0.0498757 0.0 
0.000675754 -5.90392e-05 0.0 
0.809737 0.326306 0.0 
0.842683 0.322038 0.0 
0.923754 0.0829373 0.0 
0.999847 -0.00032223 0.0 
0.0242419 0.000166653 0.0 
-1.23808e-103 9.15659e-104 0.0 
0.172331 -0.0180414 0.0 
7.93941e-153 -2.49819e-153 0.0 
-2.73829e-111 2.70206e-112 0.0 
0.219066 0.0111716 0.0 
0.110336 -0.00488697 0.0 
0.0822571 -0.0111567 0.0 
1.00206 -0.000550533 0.0 
0.41461 0.0466807 0.0 
0.086194 -0.0105253 0.0 
0.105258 -0.0302266 0.0 
0.0755075 -0.00231965 0.0 
0.298328 -0.0171479 0.0 
0.144341 0.00695237 0.0 
2.50187e-54 -5.81614e-56 0.0 
-3.92662e-107 1.06816e-107 0.0 
-3.50417e-108 7.23512e-109 0.0 
5.22861e-153 -4.7266e-154 0.0 
0.146215 -0.0154391 0.0 
0.00146483 0.000472142 0.0 
0.152603 0.00723897 0.0 
2.53329e-153 -1.78559e-154 0.0 
0.121895 -0.0204243 0.0 
0.113239 0.00431532 0.0 
0.609347 -0.34295 0.0 
0.0720484 0.00654848 0.0 
0.028621 -0.00507147 0.0 
0.41667 -0.0160918 0.0 
1.93289e-152 -5.4062e-153 0.0 
3.51276e-153 -8.98653e-155 0.0 
-9.47354e-114 -4.86096e-115 0.0 
0.014215 0.00154877 0.0 
0.101653 -0.0113665 0.0 
1.00539 -0.271366 0.0 
0.128972 -0.000681268 0.0 
0.11526 0.00380134 0.0 
2.98767e-153 -4.71151e-155 0.0 
0.0511043 -0.00657926 0.0 
0.0822854 -0.00961522 0.0 
0.637905 -0.211249 0.0 
0.357011 -0.0355562 0.0 
0.147216 -0.015697 0.0 
-1.78454e-109 4.85448e-110 0.0 
0.767999 0.249279 0.0 
0.958772 -0.0176928 0.0 
-2.04868e-104 2.6775e-105 0.0 
0.109185 -0.0118474 0.0 
-7.45671e-106 7.65522e-107 0.0 
0.651615 0.181592 0.0 
0.0285202 -0.000255684 0.0 
0.0434978 0.0033885 0.0 
0.843767 0.0152276 0.0 
0.0637642 0.00427805 0.0 
0.0806004 0.00306786 0.0 
0.0313659 -0.00547538 0.0 
0.264677 -0.00699052 0.0 
0.133243 0.0064186 0.0 
0.100191 0.00563189 0.0 
0.85066 -0.47175 0.0 
-9.03462e-105 -2.82856e-107 0.0 
-5.04608e-105 7.2362e-106 0.0 
0.0199555 -0.000332272 0.0 
-4.8075e-104 2.76287e-104 0.0 
0.700166 0.236524 0.0 
-6.83452e-108 -3.29459e-109 0.0 
0.704513 0.168135 0.0 
0.0772801 0.00366299 0.0 
1.05817 -0.0538793 0.0 
0.68584 0.190621 0.0 
0.455951 -0.0419004 0.0 
-4.79022e-107 -2.03302e-108 0.0 
-3.24973e-104 2.27541e-104 0.0 
0.191606 -0.0572385 0.0 
1.05556 -0.0645778 0.0 
9.21896e-54 -1.22482e-55 0.0 
2.30446e-05 6.03149e-07 0.0 
0.000281677 3.09576e-06 0.0 
0.733208 0.246483 0.0 
0.192059 0.016779 0.0 
0.171439 0.00805799 0.0 
1.56258e-55 -2.07603e-57 0.0 
0.821763 -0.156974 0.0 