<VTKFile type="UnstructuredGrid" version="0.1" byte_order="LittleEndian">
  <UnstructuredGrid>
    <Piece NumberOfPoints="13617" NumberOfCells="27078">
      <Points>
        <DataArray type = "Float64" NumberOfComponents="3" format="ascii">
0 0 0.0 
14 0 0.0 
14 8 0.0 
0 8 0.0 
4.43294 4.0873 0.0 
4.17306 4.05993 0.0 
5.15553 4.02606 0.0 
10.5463 4.08625 0.0 
4.01347 3.94819 0.0 
4.50965 3.98308 0.0 
4.03283 4.06047 0.0 
3.98712 4.04304 0.0 
4.01908 4.00231 0.0 
4.50235 3.9745 0.0 
4.41261 3.94923 0.0 
4.44461 4.07999 0.0 
4.27025 4.04886 0.0 
4.82918 3.9907 0.0 
8.40909 0 0.0 
4.79858 4.05061 0.0 
9.17205 3.88106 0.0 
11.1511 2.93121 0.0 
5.10917 4.01657 0.0 
4.50188 4.09986 0.0 
4.06288 4.03688 0.0 
4.86064 3.99057 0.0 
4.82941 4.02933 0.0 
3.85158 4.15847 0.0 
4.80943 3.98909 0.0 
4.10504 4.03885 0.0 
4.4096 4.07715 0.0 
4.16486 4.05889 0.0 
4.09422 4.06655 0.0 
4.73652 4.04124 0.0 
5.03122 4.01313 0.0 
4.18875 3.93918 0.0 
4.20033 3.96331 0.0 
4.5325 3.97686 0.0 
4.08147 3.99499 0.0 
4.05789 4.06544 0.0 
4.10075 4.03591 0.0 
4.81354 3.97664 0.0 
4.48295 4.0392 0.0 
4.14394 3.94805 0.0 
4.09973 4.06883 0.0 
4.98031 4.02036 0.0 
4.0631 3.94627 0.0 
4.09324 4.07263 0.0 
5.8622 0.652372 0.0 
5.01594 3.97412 0.0 
4.22735 3.91196 0.0 
4.2609 4.10923 0.0 
3.95745 3.9636 0.0 
4.06915 4.04534 0.0 
4.38498 3.96941 0.0 
4.08538 4.02507 0.0 
4.67326 3.98346 0.0 
4.95707 3.98506 0.0 
4.96872 4.01663 0.0 
3.99368 4.01426 0.0 
4.25085 4.06913 0.0 
4.02535 4.00276 0.0 
4.94587 4.02527 0.0 
4.70666 4.03293 0.0 
4.05431 3.97315 0.0 
4.31812 4.07534 0.0 
13.1695 3.28922 0.0 
4.4004 4.127 0.0 
5.00489 4.02516 0.0 
4.27251 3.94421 0.0 
4.48341 4.0268 0.0 
4.09424 4.05815 0.0 
3.99988 3.98708 0.0 
4.85367 3.99158 0.0 
4.00489 3.99798 0.0 
7.24825 3.94357 0.0 
5.03247 3.98293 0.0 
8.74855 7.71704 0.0 
5.41155 3.85481 0.0 
4.17472 4.06066 0.0 
12.5218 3.69706 0.0 
4.35684 4.08034 0.0 
4.32041 3.95193 0.0 
7.59514 2.94404 0.0 
3.95773 3.93432 0.0 
4.76396 4.03191 0.0 
4.30493 4.07262 0.0 
4.25667 4.09902 0.0 
4.17786 4.07881 0.0 
4.48822 4.12583 0.0 
5.04607 4.02448 0.0 
4.1628 3.94775 0.0 
4.14151 4.114 0.0 
5.09798 4.0273 0.0 
4.19384 4.09103 0.0 
4.08831 4.06631 0.0 
4.02088 4.07613 0.0 
4.67477 4.04095 0.0 
4.4175 4.12976 0.0 
4.10898 4.04008 0.0 
3.99592 4.02432 0.0 
4.07895 4.07661 0.0 
4.83856 3.99226 0.0 
5.01116 4.01057 0.0 
4.01979 4.02259 0.0 
4.52284 4.09709 0.0 
4.00671 4.06674 0.0 
5.0786 4.01053 0.0 
3.97234 4.03785 0.0 
4.17204 3.92436 0.0 
4.78927 3.98898 0.0 
5.00576 3.98835 0.0 
4.21761 3.96542 0.0 
4.84089 4.04063 0.0 
4.98947 4.00894 0.0 
8.71088 4.14105 0.0 
4.10873 4.07472 0.0 
4.99603 3.97729 0.0 
4.04456 4.02516 0.0 
4.4745 3.99273 0.0 
4.63705 4.04055 0.0 
11.7445 4.22598 0.0 
4.05664 3.81012 0.0 
4.95286 4.03879 0.0 
5.13412 3.99423 0.0 
4.0089 3.92893 0.0 
4.27473 4.09602 0.0 
4.25593 4.11374 0.0 
4.24915 4.05618 0.0 
12.3795 3.86793 0.0 
4.45682 3.99659 0.0 
4.31363 3.9679 0.0 
4.22847 4.07708 0.0 
10.9649 4.12089 0.0 
4.9912 4.02804 0.0 
4.33291 4.07121 0.0 
4.2242 4.06087 0.0 
5.07235 3.99531 0.0 
4.15972 4.0464 0.0 
4.08166 4.0494 0.0 
4.98997 4.02393 0.0 
4.02105 4.04639 0.0 
5.01943 4.02273 0.0 
3.96199 4.03038 0.0 
5.04864 4.04382 0.0 
4.1584 4.03851 0.0 
4.21776 3.94993 0.0 
4.76156 4.05785 0.0 
4.18813 4.09432 0.0 
4.03761 4.03538 0.0 
5.03899 4.01992 0.0 
4.7293 4.01047 0.0 
4.36669 4.07596 0.0 
4.38456 4.05375 0.0 
3.08171 2.09887 0.0 
4.92818 3.96897 0.0 
5.05402 4.03163 0.0 
4.36566 4.10014 0.0 
4.43596 4.04144 0.0 
4.16902 3.98151 0.0 
4.68572 4.05982 0.0 
4.11763 4.04808 0.0 
4.25158 3.98522 0.0 
4.9202 4.02013 0.0 
4.41472 4.04958 0.0 
4.70316 3.96658 0.0 
4.19273 3.95884 0.0 
4.213 4.06906 0.0 
4.29582 3.96665 0.0 
5.0636 3.98872 0.0 
4.30464 4.08609 0.0 
4.35612 4.03771 0.0 
3.98273 4.00621 0.0 
3.98742 4.01904 0.0 
4.98107 3.97981 0.0 
4.63916 3.98164 0.0 
5.03571 4.00684 0.0 
3.94967 4.05786 0.0 
4.98218 4.02738 0.0 
6.15548 4.02389 0.0 
4.41357 3.96274 0.0 
4.27406 4.08825 0.0 
3.95046 4.00001 0.0 
3.99745 3.98903 0.0 
4.22383 4.06305 0.0 
4.73095 4.0424 0.0 
4.28396 3.96729 0.0 
5.15771 3.9871 0.0 
4.51354 4.04014 0.0 
4.96561 3.99146 0.0 
7.10688 3.81214 0.0 
4.35025 3.9619 0.0 
4.12639 4.05926 0.0 
4.2052 3.9506 0.0 
4.0309 3.97177 0.0 
8.92501 4.02764 0.0 
4.39232 3.95197 0.0 
4.00429 4.01157 0.0 
3.99294 4.05083 0.0 
4.98463 4.01475 0.0 
4.88474 4.04745 0.0 
4.01229 4.05292 0.0 
5.00134 4.00081 0.0 
4.67609 3.93575 0.0 
4.48707 4.09716 0.0 
4.76106 3.9889 0.0 
5.01224 3.97834 0.0 
4.02873 4.02055 0.0 
3.92236 4.04787 0.0 
4.37015 4.09223 0.0 
4.04998 3.9764 0.0 
4.40086 3.97148 0.0 
4.43442 3.96057 0.0 
4.73845 3.98633 0.0 
10.7354 3.59712 0.0 
4.05619 4.041 0.0 
4.52859 3.9758 0.0 
4.4024 3.88713 0.0 
4.32531 3.95741 0.0 
4.02359 3.94782 0.0 
4.03015 3.95696 0.0 
6.18245 4.21201 0.0 
4.44736 4.06747 0.0 
4.02949 3.97631 0.0 
5.42064 4.0275 0.0 
11.4371 2.11828 0.0 
4.28115 4.08293 0.0 
4.25325 4.08014 0.0 
4.26517 3.92745 0.0 
4.75823 4.03793 0.0 
4.98174 4.03773 0.0 
4.68907 4.06774 0.0 
4.72599 4.01481 0.0 
4.37694 4.12818 0.0 
1.75542 5.41821 0.0 
5.02127 3.99687 0.0 
4.04721 3.95909 0.0 
5.86141 3.89 0.0 
4.13004 3.956 0.0 
4.00975 4.04675 0.0 
4.72253 3.98414 0.0 
2.67239 0 0.0 
4.20556 3.9676 0.0 
3.98674 3.91813 0.0 
4.50728 4.04977 0.0 
4.25 4.04556 0.0 
4.79794 4.03455 0.0 
4.03695 4.06573 0.0 
4.01192 3.85935 0.0 
4.31114 4.07839 0.0 
4.23233 4.101 0.0 
4.26093 4.08097 0.0 
4.20051 4.07495 0.0 
4.08763 3.9702 0.0 
4.18755 4.11048 0.0 
3.91494 4.13773 0.0 
4.0538 3.95415 0.0 
4.29625 3.95054 0.0 
4.71035 4.02722 0.0 
4.35999 3.9441 0.0 
4.02867 3.963 0.0 
8.75684 0.585272 0.0 
4.7725 4.04634 0.0 
6.19714 4.00762 0.0 
4.57753 4.07254 0.0 
5.02679 3.9978 0.0 
4.99347 4.02007 0.0 
4.39273 4.07056 0.0 
4.00749 3.97714 0.0 
11.3017 0 0.0 
4.34965 4.05444 0.0 
3.98298 4.00201 0.0 
4.27995 4.04964 0.0 
6.06448 3.94858 0.0 
4.0277 4.00858 0.0 
4.44438 4.05445 0.0 
3.99624 4.02711 0.0 
8.51349 2.31792 0.0 
4.00854 4.04134 0.0 
8.03046 5.83915 0.0 
4.0582 3.9448 0.0 
4.38343 3.91312 0.0 
4.51417 4.06383 0.0 
4.00826 4.01349 0.0 
5.00162 3.97999 0.0 
4.21428 4.08445 0.0 
4.08447 4.04861 0.0 
4.28477 4.07284 0.0 
4.35885 3.94853 0.0 
4.02918 4.02993 0.0 
4.01731 3.97083 0.0 
4.24632 4.05089 0.0 
4.17782 3.97888 0.0 
4.09154 3.93527 0.0 
4.74458 4.0279 0.0 
4.6559 7.60199 0.0 
4.24196 3.98731 0.0 
4.10803 3.99306 0.0 
4.04421 3.97539 0.0 
4.44131 3.95584 0.0 
3.99835 4.02918 0.0 
11.4194 7.77898 0.0 
4.24711 4.08557 0.0 
4.11241 4.05725 0.0 
5.3262 4.0473 0.0 
5.05532 3.96524 0.0 
4.28512 4.05404 0.0 
4.19551 3.97637 0.0 
3.99623 4.03627 0.0 
4.03277 4.00935 0.0 
4.05133 4.02283 0.0 
4.56905 3.9699 0.0 
4.01683 4.05945 0.0 
4.1755 3.94311 0.0 
4.36691 4.08793 0.0 
4.0781 3.98964 0.0 
4.22361 4.04691 0.0 
4.14535 3.95351 0.0 
4.85559 4.02704 0.0 
5.61751 3.88935 0.0 
3.97422 3.94364 0.0 
4.00652 4.03234 0.0 
4.35146 3.9358 0.0 
4.42014 4.08348 0.0 
3.93575 3.98835 0.0 
4.00427 4.04292 0.0 
4.32481 3.96949 0.0 
4.02241 4.02346 0.0 
5.37884 4.0258 0.0 
4.99643 3.98691 0.0 
3.99047 3.98781 0.0 
5.56217 4.02861 0.0 
4.04839 4.01492 0.0 
4.8688 4.02467 0.0 
4.33458 4.14748 0.0 
2.53633 0.42227 0.0 
4.98996 3.97879 0.0 
5.29766 3.97245 0.0 
4.21236 3.95932 0.0 
4.3244 4.08345 0.0 
4.3994 3.99099 0.0 
8.19873 2.7271 0.0 
4.65996 4.04997 0.0 
4.06425 3.93419 0.0 
0.238681 7.10111 0.0 
4.00757 3.98474 0.0 
4.1401 3.98497 0.0 
4.10988 3.95698 0.0 
4.48228 4.10457 0.0 
4.30669 3.9457 0.0 
4.04131 3.99766 0.0 
12.5548 8 0.0 
5.03609 3.98885 0.0 
0.712024 5.21358 0.0 
3.9756 4.08504 0.0 
4.037 4.008 0.0 
4.06005 3.96532 0.0 
4.03867 4.02686 0.0 
4.04847 4.04817 0.0 
4.01118 3.98048 0.0 
0.260039 6.58746 0.0 
4.19216 3.95644 0.0 
4.00032 4.0278 0.0 
3.9514 4.04615 0.0 
4.80927 4.04945 0.0 
4.03373 4.01881 0.0 
4.80559 4.0533 0.0 
4.19928 4.09567 0.0 
4.99249 4.01448 0.0 
4.0241 4.0517 0.0 
4.03402 4.05512 0.0 
4.01068 3.99745 0.0 
4.02872 3.99494 0.0 
4.695 3.98404 0.0 
4.40413 4.05425 0.0 
5.40558 3.95565 0.0 
4.88651 4.02167 0.0 
5.02756 3.99082 0.0 
4.49023 4.08399 0.0 
3.97063 4.01516 0.0 
4.21846 3.91954 0.0 
4.94535 3.99575 0.0 
3.98656 4.03721 0.0 
5.115 4.15212 0.0 
4.07021 3.95517 0.0 
4.23437 4.04707 0.0 
4.0224 4.02913 0.0 
4.39312 3.97176 0.0 
4.04765 4.0351 0.0 
4.9194 4.00436 0.0 
4.12506 3.9689 0.0 
4.95689 3.99563 0.0 
4.99566 4.00295 0.0 
4.39635 3.90538 0.0 
4.00518 3.97325 0.0 
5.01982 4.03188 0.0 
5.78035 4.10931 0.0 
4.35454 4.08492 0.0 
5.99122 3.96333 0.0 
6.48992 5.70072 0.0 
4.47868 4.08142 0.0 
4.22618 4.07263 0.0 
8.83615 7.25521 0.0 
4.02813 3.92134 0.0 
4.67499 4.04754 0.0 
4.11847 4.09252 0.0 
4.1316 4.07308 0.0 
4.12603 3.95528 0.0 
4.05163 3.99747 0.0 
4.78457 4.06251 0.0 
4.04366 4.07594 0.0 
3.92298 4.03296 0.0 
2.48936 3.97501 0.0 
4.06987 3.96362 0.0 
3.99891 4.05059 0.0 
4.34615 4.09811 0.0 
3.99154 4.0424 0.0 
4.01424 4.03115 0.0 
4.01671 4.01538 0.0 
4.66508 4.0499 0.0 
4.05033 4.00375 0.0 
4.75198 4.04028 0.0 
8.62428 2.58238 0.0 
4.03734 3.98999 0.0 
4.20672 4.05011 0.0 
3.98689 4.0502 0.0 
4.46102 4.11168 0.0 
4.04817 3.99065 0.0 
3.9746 4.03383 0.0 
4.4675 4.06799 0.0 
4.42413 3.97132 0.0 
0 0.509497 0.0 
4.60176 4.05603 0.0 
4.28559 3.95711 0.0 
3.97752 4.04103 0.0 
4.43771 3.8822 0.0 
4.82678 4.05917 0.0 
3.99979 3.98858 0.0 
4.17675 4.04307 0.0 
13.709 2.27855 0.0 
4.0707 4.14271 0.0 
4.27984 4.07852 0.0 
0 3.17328 0.0 
4.43915 4.06688 0.0 
4.0784 3.94608 0.0 
5.69902 3.95263 0.0 
4.16495 3.96611 0.0 
4.84858 4.02633 0.0 
4.11872 3.94508 0.0 
4.24867 4.13525 0.0 
3.99069 3.9699 0.0 
3.91654 3.93923 0.0 
3.99271 3.9642 0.0 
3.9869 4.03092 0.0 
3.99956 3.96553 0.0 
4.20998 4.0635 0.0 
4.37258 4.09634 0.0 
4.20743 4.08772 0.0 
4.01563 3.96922 0.0 
4.28219 4.07607 0.0 
4.40345 4.04411 0.0 
4.28559 4.07835 0.0 
4.21802 3.99172 0.0 
4.23043 4.08769 0.0 
4.24693 3.91959 0.0 
6.37299 3.96066 0.0 
4.03697 4.03091 0.0 
4.00699 3.96684 0.0 
4.23966 3.9471 0.0 
4.07577 3.95908 0.0 
4.07038 4.044 0.0 
3.94839 3.98159 0.0 
13.577 4.45538 0.0 
[...]
<PointData>
  <DataArray type = "Float64" Name="Vitesse" NumberOfComponents="3" format="ascii">
1 0 0.0 
1.00762 0 0.0 
1.00501 0 0.0 
1 0 0.0 
0.3692 -0.00470713 0.0 
1.54998e-05 1.7933e-06 0.0 
0.176162 -0.011064 0.0 
0.815867 -0.000907358 0.0 
0.948793 -0.31089 0.0 
1.2709e-182 1.74119e-183 0.0 
0.901692 0.335485 0.0 
0.713376 0.228616 0.0 
0 0 0.0 
0.0152639 0.000594027 0.0 
0.350842 0.00622364 0.0 
0.233167 -0.00584744 0.0 
0 0 0.0 
0.000656671 4.0074e-05 0.0 
1.00879 0 0.0 
0.108793 -0.011479 0.0 
0.860718 0.00114909 0.0 
1.01242 -0.00244219 0.0 
0.122908 -0.00574648 0.0 
0.575983 -0.0115151 0.0 
0 0 0.0 
0.019084 0.000954209 0.0 
0.00254499 -0.000231842 0.0 
0.925548 0.0642306 0.0 
0.00921489 0.000431859 0.0 
0 0 0.0 
0.176485 -0.00379 0.0 
2.90527e-06 4.01903e-07 0.0 
0.822306 0.208979 0.0 
-1.53127e-48 1.54322e-49 0.0 
0.0546898 -0.00909249 0.0 
0.729557 -0.0422375 0.0 
0.106653 -0.000756491 0.0 
0.000759683 4.48524e-05 0.0 
0 0 0.0 
0.947169 0.308146 0.0 
0 0 0.0 
0.133397 0.0059771 0.0 
0 0 0.0 
0.637274 -0.0523118 0.0 
0.83924 0.20497 0.0 
0.0448958 -0.00776042 0.0 
1.02119 -0.221194 0.0 
0.93763 0.241998 0.0 
1.00895 -0.000390308 0.0 
0.24418 0.0256576 0.0 
1.03549 -0.0639361 0.0 
0.983735 0.0953968 0.0 
0.790576 -0.155162 0.0 
0.301366 0.0894711 0.0 
0.0293316 0.00158652 0.0 
0 0 0.0 
9.43461e-05 1.75113e-05 0.0 
0.113833 0.00586195 0.0 
0.0257649 -0.00399373 0.0 
0.391194 0.212024 0.0 
0.086913 0.00525275 0.0 
0 0 0.0 
0.0472797 -0.00633078 0.0 
0 0 0.0 
0.156209 -0.0307719 0.0 
0.164256 0.00533558 0.0 
1.03075 -0.00752467 0.0 
1.00236 0.0334116 0.0 
0.075558 -0.0188785 0.0 
0.491308 -0.00657327 0.0 
0 0 0.0 
0.563758 0.137204 0.0 
0.520697 -0.453622 0.0 
0.00769048 0.000336547 0.0 
0 0 0.0 
0.729432 0.00289322 0.0 
0.172704 0.0222346 0.0 
1.00831 -0.000144395 0.0 
0.979704 0.0224875 0.0 
0.030888 0.000718295 0.0 
0.948403 -0.00561396 0.0 
0.253752 0.00249099 0.0 
0.313668 0.00196224 0.0 
1.0101 0.000866277 0.0 
0.865905 -0.161502 0.0 
4.65492e-274 -3.05521e-275 0.0 
0.106708 0.00326925 0.0 
0.841771 0.0782971 0.0 
0.65031 0.0942522 0.0 
0.932186 0.00287352 0.0 
0.093961 -0.015813 0.0 
0.587001 -0.037947 0.0 
1.08518 0.203929 0.0 
0.140931 -0.0137846 0.0 
0.872202 0.121883 0.0 
0.854044 0.228209 0.0 
0.893658 0.278245 0.0 
-3.36913e-145 3.17513e-146 0.0 
1.01163 0.0280455 0.0 
0 0 0.0 
0.549845 0.298059 0.0 
0.998115 0.278661 0.0 
-2.3873e-94 -1.84829e-95 0.0 
0.0325867 -0.0127785 0.0 
0.0505479 0.0362734 0.0 
0.529462 -0.013991 0.0 
0.84128 0.271243 0.0 
0.0968691 -0.00184806 0.0 
0.704681 0.148211 0.0 
1.00524 -0.0872242 0.0 
6.80479e-05 -1.14369e-06 0.0 
0.111768 0.0196192 0.0 
0.0526831 -0.00080336 0.0 
0.0674658 -0.00804876 0.0 
0.014714 -0.00374684 0.0 
0.891357 -0.00298578 0.0 
0.906813 0.21079 0.0 
0.20955 0.0182203 0.0 
0 0 0.0 
0 0 0.0 
0 0 0.0 
0.956318 -0.00113387 0.0 
1.01945 -0.115993 0.0 
0.122631 -0.0142183 0.0 
0.176739 0.0119659 0.0 
0.952195 -0.244902 0.0 
0.740025 0.0583714 0.0 
1.03572 0.106168 0.0 
0 0 0.0 
0.847475 0.0131338 0.0 
0 0 0.0 
0.0260676 9.56921e-06 0.0 
0.386199 0.0352207 0.0 
0.862593 -0.0030302 0.0 
0.0839586 -0.0152596 0.0 
0.0572949 0.000238875 0.0 
1e-307 0 0.0 
0.126913 0.010956 0.0 
0 0 0.0 
0.324173 0.0896037 0.0 
0.0645853 -0.0128128 0.0 
0.816134 0.365607 0.0 
0.0700658 -0.018638 0.0 
0.706397 0.0906275 0.0 
0.201942 -0.0264657 0.0 
0 0 0.0 
0.420353 -0.0106639 0.0 
0.144332 -0.0136974 0.0 
0.945218 0.139673 0.0 
0.361994 0.144887 0.0 
0.0741582 -0.0131996 0.0 
0 0 0.0 
0.155066 0.000910397 0.0 
0 0 0.0 
1.00273 -0.00613516 0.0 
0.257203 0.0117294 0.0 
0.130041 -0.0198115 0.0 
0.667375 0.0194989 0.0 
0 0 0.0 
0 0 0.0 
0.108915 -0.00981735 0.0 
0 0 0.0 
0 0 0.0 
0.0154933 -0.00240823 0.0 
0 0 0.0 
0.194018 0.0082593 0.0 
0.224644 -0.00237959 0.0 
0.184153 0.0148103 0.0 
0.0402438 0.00056962 0.0 
0.154901 0.0162015 0.0 
0.450376 0.0221925 0.0 
0 0 0.0 
0.478857 -0.0109543 0.0 
0.517968 0.174594 0.0 
0.177553 0.0113357 0.0 
0.00460672 0.000560289 0.0 
0.0595442 -0.0016529 0.0 
0.798568 0.112676 0.0 
0.0761242 -0.0120678 0.0 
0.528843 -0.00379003 0.0 
0.139171 0.00407805 0.0 
0.564674 0.0400253 0.0 
0.721271 -0.0422948 0.0 
0.4719 -0.438035 0.0 
0 0 0.0 
0.00377593 -0.000490406 0.0 
0.0248724 0.00065765 0.0 
0.224504 0.0147203 0.0 
0 0 0.0 
0.0573449 0.0031573 0.0 
0.983179 0.00221465 0.0 
0.135897 0.00231331 0.0 
0.298593 0.0567786 0.0 
0.420139 -0.0126226 0.0 
0.607977 -0.190057 0.0 
0.733074 -0.000757656 0.0 
0.305676 0.00512846 0.0 
0.0607947 0.0740251 0.0 
0.75738 0.252353 0.0 
0.0278225 -0.00578895 0.0 
0.140657 -0.0148642 0.0 
0.814948 0.326022 0.0 
0.00792794 -0.00252441 0.0 
0.549294 0.0150076 0.0 
0.534369 -0.00915963 0.0 
-1.82271e-95 -2.25028e-96 0.0 
0.203971 0.0241696 0.0 
0 0 0.0 
0.818011 0.0592602 0.0 
0.502894 0.00949072 0.0 
0 0 0.0 
0.00871675 0.000797655 0.0 
0.17718 0.00481625 0.0 
0.00567295 0.000633191 0.0 
1.01181 -0.00331055 0.0 
0.290713 0.0925365 0.0 
0.0120351 0.000857172 0.0 
1.04706 -0.0220855 0.0 
0.211797 0.00264432 0.0 
0.989863 -0.310937 0.0 
0.991449 -0.322481 0.0 
1.00041 -0.0107968 0.0 
0.023011 -0.00208483 0.0 
0.350743 -0.103313 0.0 
0.327281 -0.00886962 0.0 
1.01187 -0.00193356 0.0 
0.413364 0.0248873 0.0 
0.403647 0.0305655 0.0 
0.814666 -0.0272522 0.0 
4.94831e-08 -1.31426e-09 0.0 
0.132857 -0.0175979 0.0 
0.192736 -0.0156578 0.0 
0 0 0.0 
1.02969 0.0451141 0.0 
0.999801 0.00329595 0.0 
0.0695675 0.00921421 0.0 
0.884752 -0.223847 0.0 
0.884636 0.0126222 0.0 
0.443409 -0.0365499 0.0 
0.781251 0.339233 0.0 
0.01768 0.0013898 0.0 
1.00262 0 0.0 
0.00644929 -0.000214934 0.0 
0.922761 -0.197784 0.0 
0 0 0.0 
0 0 0.0 
0.00706995 -0.000769883 0.0 
0.921925 0.323249 0.0 
0.98922 -0.147418 0.0 
0.248019 0.00872416 0.0 
0.932734 0.10475 0.0 
0.407096 0.0288857 0.0 
0.426714 0.0481023 0.0 
0.0719722 -0.00933207 0.0 
1.08477 0.165718 0.0 
0.906057 0.0970263 0.0 
0.949942 -0.22509 0.0 
0.348098 0.000216518 0.0 
0 0 0.0 
0.445234 0.00239124 0.0 
0.930866 -0.318179 0.0 
1.00887 2.38201e-07 0.0 
0.0598593 -0.00679805 0.0 
0.525366 -0.000507413 0.0 
0.177894 -0.0110625 0.0 
0.0727024 0.00808292 0.0 
0.0507594 -0.01257 0.0 
0.0475238 0.00172932 0.0 
0.761773 -0.43311 0.0 
1.00948 0 0.0 
0 0 0.0 
0.475442 -0.0737968 0.0 
0 0 0.0 
0.653675 0.00821255 0.0 
0 0 0.0 
0 0 0.0 
0.585774 0.302836 0.0 
1.00998 -9.78135e-06 0.0 
0.747608 0.354344 0.0 
1.00977 -0.00154344 0.0 
1.04134 -0.237967 0.0 
0.889589 -0.0126756 0.0 
0.0189523 -0.00121114 0.0 
1.20443e-10 9.4054e-11 0.0 
0.186435 0.0202162 0.0 
0.646991 0.0727971 0.0 
0.246118 0.0688296 0.0 
0.137283 0.00776065 0.0 
0.367574 0.00334659 0.0 
0.250193 0.10787 0.0 
0.845846 -0.368421 0.0 
0 0 0.0 
0 0 0.0 
1.05358 -0.17534 0.0 
0 0 0.0 
1.00859 0.000765312 0.0 
0 0 0.0 
0 0 0.0 
0.141501 -0.028637 0.0 
0.250175 0.00609229 0.0 
0.612201 0.322576 0.0 
1.00719 -8.15754e-05 0.0 
0.568661 0.0491872 0.0 
0.338252 0.0666797 0.0 
0.371442 -0.020592 0.0 
0.338006 0.0291302 0.0 
0 0 0.0 
0 0 0.0 
0.67524 0.293673 0.0 
0 0 0.0 
0 0 0.0 
0.101721 0.00387654 0.0 
0.850294 0.316846 0.0 
0.672802 -0.0405998 0.0 
0.414251 0.00629089 0.0 
0 0 0.0 
0 0 0.0 
0.471935 -0.0336221 0.0 
0.00835179 -0.00111989 0.0 
0.89295 0.0175865 0.0 
0.853951 -0.206349 0.0 
0.66356 0.372811 0.0 
0.593606 -0.00204069 0.0 
0.298188 -0.00379281 0.0 
0.776931 -0.0602869 0.0 
0.741879 0.328568 0.0 
0.00107874 5.10471e-05 0.0 
8.88287e-08 3.85071e-08 0.0 
0.304366 -0.00865009 0.0 
0.120947 0.0139586 0.0 
0.54136 -0.342251 0.0 
0.388129 -0.00812076 0.0 
0 0 0.0 
0.0065164 -0.00111869 0.0 
1.1227 0.0750242 0.0 
1.0023 -0.000824818 0.0 
0.192508 0.0147367 0.0 
0.380839 0.0181742 0.0 
0.197736 -0.00333799 0.0 
0.356661 0.0114595 0.0 
0 0 0.0 
1.01015 0.000185541 0.0 
0.000138598 -1.4522e-05 0.0 
1.06912 -0.225239 0.0 
1.00001 0.000172482 0.0 
0.456416 -0.295434 0.0 
0 0 0.0 
0.492533 -0.0485592 0.0 
0.657788 -0.00629321 0.0 
0.438276 -0.00120301 0.0 
0 0 0.0 
1.00659 0 0.0 
0.132058 0.0174022 0.0 
0.999909 0.000977168 0.0 
0.849118 0.176146 0.0 
0 0 0.0 
0.513198 -0.096898 0.0 
-3.40226e-65 -1.23071e-65 0.0 
0.723007 0.260442 0.0 
0.59118 -0.321056 0.0 
1.00001 0.000279303 0.0 
0.288192 -0.00558068 0.0 
0.597646 0.342617 0.0 
0.771543 0.100591 0.0 
0.107111 -0.0114086 0.0 
0 0 0.0 
0.134583 -0.0137155 0.0 
0.934749 0.128814 0.0 
0.031826 -0.00906194 0.0 
0.850914 0.354683 0.0 
0.885677 0.346055 0.0 
0 0 0.0 
0 0 0.0 
0.006242 0.000496153 0.0 
0 0 0.0 
0.523187 0.0194425 0.0 
0.00516839 -0.000618813 0.0 
0.111349 0.0160779 0.0 
0.310586 -0.00972065 0.0 
0.620889 0.0446636 0.0 
0.984322 -0.0599927 0.0 
0.0077409 0.00114496 0.0 
0.678121 0.223245 0.0 
0.971066 -0.0468485 0.0 
0.813394 -0.151089 0.0 
0 0 0.0 
0.405898 0.207827 0.0 
3.93685e-07 4.36746e-08 0.0 
0.104392 0.035283 0.0 
1e-307 1e-307 0.0 
1.06893e-07 -6.09188e-09 0.0 
0.0139119 0.000726701 0.0 
0.0044895 -0.00139613 0.0 
0.952179 -0.0144487 0.0 
0.815821 -0.434533 0.0 
0.11324 -0.0225917 0.0 
0.813293 -0.0191425 0.0 
0.358184 0.00612991 0.0 
0.585581 0.00775034 0.0 
1.01244 -0.00283844 0.0 
0.264919 -0.00818102 0.0 
0.257573 0.0221444 0.0 
1.0084 -0.000370627 0.0 
0.999572 -0.234 0.0 
-3.7979e-49 3.05744e-50 0.0 
1.04954 0.231589 0.0 
0.744863 0.148357 0.0 
0.482124 -0.0425417 0.0 
0 0 0.0 
0.20258 -0.0183054 0.0 
0.94927 0.299672 0.0 
0.802573 0.0375695 0.0 
0.993421 0.000519161 0.0 
0.493523 -0.0807458 0.0 
0.766673 0.280479 0.0 
0.652792 0.0236925 0.0 
0.711204 0.254278 0.0 
0.628414 0.359803 0.0 
0 0 0.0 
0.00555305 -0.000100637 0.0 
0 0 0.0 
0.00658528 -0.000957565 0.0 
1.01018 -0.000123582 0.0 
0 0 0.0 
0 0 0.0 
0.749278 0.225503 0.0 
0.776899 0.00203383 0.0 
0 0 0.0 
0.680765 0.14906 0.0 
0.0430889 -0.00260619 0.0 
0.0198978 0.000997809 0.0 
1 0 0.0 
0.00633705 -0.00057569 0.0 
0.220428 0.000963086 0.0 
0.709445 0.177467 0.0 
1.05116 -0.0162767 0.0 
0.198427 -0.0188605 0.0 
0.462999 -0.436552 0.0 
0 0 0.0 
1.01547 0.00660332 0.0 
1.0075 0.197152 0.0 
0.298731 0.0165314 0.0 
1 0 0.0 
0.00849586 -4.41011e-05 0.0 
0.97301 -0.176995 0.0 
0.595508 0.0125822 0.0 
0.0481654 -0.000697367 0.0 
0.00168474 -0.000237533 0.0 
0.814207 -0.093431 0.0 
1.12091 0.123389 0.0 
0.763334 -0.327961 0.0 
0.866581 -0.0952394 0.0 
0.808343 -0.320697 0.0 
0.632071 0.218335 0.0 
0.833318 -0.364096 0.0 
2.49862e-07 2.89735e-08 0.0 
0.585031 0.0131895 0.0 
0.754554 0.0930212 0.0 
0.881987 -0.389981 0.0 
0.228181 0.0119549 0.0 
0 0 0.0 
0.283904 0.0154257 0.0 
0 0 0.0 
0.672943 0.0689088 0.0 
0.946001 -0.045624 0.0 
0.636253 0.00501561 0.0 
0.0762666 0.0262551 0.0 
0.872114 -0.399439 0.0 
0.460492 -0.00880857 0.0 
0.63515 -0.102092 0.0 
0.210753 0.0637925 0.0 
0.757264 -0.0976236 0.0 
0.990563 -0.00817844 0.0 
0 0 0.0 
0.028341 -0.00129208 0.0 
0.324322 0.012012 0.0 
1.00951 -0.000677847 0.0 
0.0142508 0.000693768 0.0 
0 0 0.0 
1.06208 -0.0499695 0.0 
0 0 0.0 
0.82927 0.0396025 0.0 
0 0 0.0 
0.603948 0.0166161 0.0 
0.00104225 -0.000173344 0.0 
1.02614 -0.0078825 0.0 
0 0 0.0 
0.622934 0.195668 0.0 
0.352862 0.0114313 0.0 
0 0 0.0 
0.0572242 0.00290453 0.0 
0.0324006 0.00129475 0.0 
0 0 0.0 
0.763576 0.0802872 0.0 
0 0 0.0 
0.680077 -0.0774221 0.0 
0.0185951 0.00105734 0.0 
1.00511 -0.0479544 0.0 
0.00693219 0.00212116 0.0 
0 0 0.0 
0.0140443 -0.000377332 0.0 
0.226641 0.000257815 0.0 
0.0261859 -0.00258185 0.0 
0.719961 0.127876 0.0 
1.01042 -0.00555274 0.0 
0.874779 0.337415 0.0 
0.336302 -0.00970068 0.0 
0.774399 0.123775 0.0 
0 0 0.0 
0.136268 0.00186608 0.0 
-3.45976e-60 -1.398e-60 0.0 
0 0 0.0 
0.938682 0.291285 0.0 
0.678666 0.0613817 0.0 
0.0876929 0.0035601 0.0 
0.743649 0.110713 0.0 
0.914131 0.330493 0.0 
0.88615 0.322373 0.0 
1.01062 -0.00117063 0.0 
0 0 0.0 
0.106763 0.0047418 0.0 
0.877123 0.347547 0.0 
0.00965462 0.000396648 0.0 
0.176499 0.000657206 0.0 
0.00193271 0.000148694 0.0 
2.9873e-06 3.30697e-07 0.0 
0.0514739 0.00215018 0.0 
0.757402 -0.0251623 0.0 
0.0159663 0.00112433 0.0 
0.506492 0.0763641 0.0 
0.806224 0.0779182 0.0 
0.00556091 -0.000467101 0.0 
0.639039 0.0531863 0.0 
1.55676e-08 6.73441e-09 0.0 
0.661444 -0.0513264 0.0 
1.01019 -0.000247052 0.0 
0 0 0.0 
0.0229827 -0.000298109 0.0 
0.41891 0.0233824 0.0 
0.0358672 0.00186737 0.0 
0.282353 0.0223882 0.0 
1.0014 0.00299781 0.0 
0.0888603 -0.00974247 0.0 
1.02122 0.22263 0.0 
0.427301 -0.00205469 0.0 
0 0 0.0 
0.994038 0.0598155 0.0 
-1.6375e-98 9.87222e-100 0.0 
0.0347147 -0.00191025 0.0 
1.05917 0.151943 0.0 
0.259871 0.0228291 0.0 
0.85144 0.0371473 0.0 
0.54283 -0.0112451 0.0 
0 0 0.0 
1.00576 0 0.0 
0.3515 -0.00891514 0.0 
0.66475 0.14232 0.0 
1.01192 -0.0721032 0.0 
1.01196e-05 4.52096e-07 0.0 
1.01806 0.274538 0.0 
1.10603 0.0992644 0.0 
0.879485 -0.120064 0.0 
0 0 0.0 
0.253328 0.0304068 0.0 
0.00210774 -0.000262391 0.0 
0.00522028 -0.000315838 0.0 
0 0 0.0 
0.984397 -0.0467401 0.0 
0 0 0.0 
0.261418 0.0141551 0.0 
0.343769 0.0615404 0.0 
1.00104 0.0032129 0.0 
0.230008 0.00374498 0.0 
0.903229 -0.0160247 0.0 
0.826696 -0.0467452 0.0 
0 0 0.0 
0 0 0.0 
1.03678 0.0513453 0.0 
0.668004 -0.123127 0.0 
0.30738 0.0122852 0.0 
1.07928 -0.00102358 0.0 
0.84778 0.339297 0.0 
0.014424 -0.00128752 0.0 
0.649845 0.0494966 0.0 
0 0 0.0 
0.817306 0.0993321 0.0 
0.00438647 -0.000558149 0.0 
1.03447 0.137289 0.0 
0.859875 -0.0331552 0.0 
0 0 0.0 
0.975913 -0.129104 0.0 
0.882485 -0.202134 0.0 
0.959695 0.0806716 0.0 
0.902646 0.337841 0.0 
1.00913 7.68061e-05 0.0 
0.287853 -0.0140442 0.0 
0.651637 0.303095 0.0 
0.276917 -0.00449698 0.0 
0.209739 0.115455 0.0 
1.41608e-06 1.32578e-07 0.0 
0 0 0.0 
0.000606818 5.29085e-05 0.0 
0 0 0.0 
0.255744 0.00549959 0.0 
0.821121 0.302834 0.0 
0.954659 -0.204552 0.0 
0.604988 -0.277772 0.0 
0.63011 0.119379 0.0 
0.538885 -0.00132952 0.0 
0.294269 -0.0242316 0.0 
1.00887 0 0.0 
0.80746 -0.0708548 0.0 
1e-307 1e-307 0.0 
1.01161 6.85249e-05 0.0 
0.529078 -0.00401537 0.0 
3.82238e-11 -3.04737e-12 0.0 
0.032424 0.00296573 0.0 
0.140764 0.00675422 0.0 
0 0 0.0 
0.996052 -0.00665398 0.0 
0.577783 -0.000403456 0.0 
0.890353 -0.207733 0.0 
1.01504 0.0121501 0.0 
1.00758 0 0.0 
0.934752 -0.328893 0.0 
0.968428 -0.0470208 0.0 
0 0 0.0 
0.976217 0.0106908 0.0 
0.999401 -0.00194204 0.0 
0 0 0.0 
0.633467 0.0765734 0.0 
0.021491 0.000484936 0.0 
0.99809 -0.118988 0.0 
0.999293 -0.239363 0.0 
0.380296 -0.00113014 0.0 
0.595626 0.000802567 0.0 
0.20691 -0.0114036 0.0 
1.00622 0.267594 0.0 
1.07534 0.144507 0.0 
0.961111 0.287977 0.0 
0.588019 -0.123961 0.0 
0.836202 0.259003 0.0 
0 0 0.0 
0.000747519 -7.71391e-05 0.0 
1.02083 -0.147086 0.0 
0.664746 -0.0656229 0.0 
0.867568 -0.186864 0.0 
1.0148 0.255924 0.0 
0.321688 -0.000871411 0.0 
0.0446746 0.00217853 0.0 
0.0161137 0.000825731 0.0 
0.0157994 0.000443272 0.0 
0.0438534 -0.00193132 0.0 
0.556143 -0.0989261 0.0 
0.905525 0.0614104 0.0 
0.706315 -0.0592897 0.0 
0.00994629 0.000317664 0.0 
0.99963 -0.000241294 0.0 
0.538043 -0.0506598 0.0 
1 0 0.0 
0.0831948 0.00955877 0.0 
0.787958 0.261923 0.0 
0.0325335 -0.00066267 0.0 
1.05078 -0.0123607 0.0 
1.09804 0.0462953 0.0 
0 0 0.0 
1.0078 0 0.0 
0.92349 0.256511 0.0 
0.101747 0.00556993 0.0 
1.0112 -0.00118624 0.0 
0.73363 0.00459969 0.0 
1.01037 0.000731875 0.0 
3.03614e-09 -3.88437e-10 0.0 
0.0101568 -0.00126492 0.0 
0.0056378 -0.000186587 0.0 
0.00170757 -0.000318395 0.0 
0 0 0.0 
1.0081 -0.000279823 0.0 
1.00907 0 0.0 
0.00656147 -0.000436702 0.0 
0 0 0.0 
0.336569 -0.0324343 0.0 
0 0 0.0 
0.230133 0.00170408 0.0 
0.654555 -0.0183335 0.0 
0.267817 0.0246466 0.0 
0.819274 0.0940572 0.0 
0 0 0.0 
8.58183e-06 -1.07465e-06 0.0 
0.383057 0.0448421 0.0 
0 0 0.0 
0.139451 -0.00874757 0.0 
0.00339646 -0.000593684 0.0 
0.109749 0.00438934 0.0 
0.48616 -0.0213629 0.0 
0 0 0.0 
0.759858 0.055498 0.0 
0.107239 0.00575356 0.0 
0.183149 0.0105202 0.0 
0.970878 0.164073 0.0 
0.00379005 -0.000432901 0.0 
0 0 0.0 
0.778228 -0.134843 0.0 
0.831423 -0.0380448 0.0 
0 0 0.0 
0.464383 0.0695247 0.0 
0.898055 0.187801 0.0 
0 0 0.0 
1.10757 0.142601 0.0 
0.0661603 0.00884774 0.0 
0.791851 0.167886 0.0 
1.00035 0.000419241 0.0 
0.607371 -0.0269741 0.0 
0.400291 0.177254 0.0 
0.377757 -0.0308706 0.0 
0.975469 -0.0866441 0.0 
0 0 0.0 
0 0 0.0 
0.128603 -0.0044815 0.0 
0.930876 0.0957974 0.0 
1.00025 0.00063082 0.0 
0.497977 -0.0405427 0.0 
0.853794 0.275061 0.0 
-5.66427e-74 -3.45571e-74 0.0 
0.00405503 -0.00036891 0.0 
0 0 0.0 
0.0744874 0.0150891 0.0 
0.921289 -0.140155 0.0 
0.863716 0.0114614 0.0 
0.0149531 -0.0015472 0.0 
1.00941 -0.000925899 0.0 
1.06748 -0.146371 0.0 
0 0 0.0 
0.014385 0.000966882 0.0 
1.02175 -0.208125 0.0 
0.0574847 -0.00671467 0.0 
0.428721 -0.0152398 0.0 
1.0764 0.0505973 0.0 
0.885885 -0.030572 0.0 
0.0363034 -0.00259338 0.0 
0.918706 0.0304007 0.0 
1.01023 0.0056407 0.0 
1.00847 0.0723951 0.0 
0.901853 0.10658 0.0 
1.06676 -0.034435 0.0 
1.00679 -0.00191554 0.0 
0.99958 -0.000841912 0.0 
0 0 0.0 
0.862697 -0.134667 0.0 
1 0 0.0 
0.0002641 1.69879e-05 0.0 
0.0110871 0.000870223 0.0 
0.974105 -0.227084 0.0 
0.939637 -0.0630548 0.0 
0.345099 -0.011135 0.0 
0 0 0.0 
1.01565 -0.00745323 0.0 
0.815184 0.0142718 0.0 
0.378999 0.0271995 0.0 
0.815353 -0.0915668 0.0 
0 0 0.0 
0 0 0.0 
0 0 0.0 
0.302678 -0.00667652 0.0 
0.0472863 0.00443584 0.0 
0.373196 -0.00227549 0.0 
1.00827 0.241358 0.0 
0.999915 0.0241788 0.0 
0.972739 -0.00113263 0.0 
0 0 0.0 
0 0 0.0 
0.0371544 -0.00504936 0.0 
0.517345 -0.022363 0.0 
0 0 0.0 
0 0 0.0 
1.00428 -0.00107302 0.0 
0.159016 0.00843809 0.0 
0.539585 0.0080534 0.0 
0.504733 0.04068 0.0 
1.01004 -0.286538 0.0 
0.0930997 -0.162016 0.0 
0 0 0.0 
0.662665 -0.00116298 0.0 
1.00082 0.00696607 0.0 
0 0 0.0 
1.00161 -0.00547109 0.0 
0.0251289 -0.000466972 0.0 
0 0 0.0 
-4.80043e-49 -2.37197e-50 0.0 
1.05119 0.217513 0.0 
0.0609396 0.0024605 0.0 
0.977266 -0.33937 0.0 
0.259431 0.044035 0.0 
0.595541 0.00337765 0.0 
0.920046 0.0487458 0.0 
0 0 0.0 
0 0 0.0 
0.880269 0.0966097 0.0 
0.0868721 -0.00926791 0.0 
0.0423603 0.00777455 0.0 
1.09 -0.14599 0.0 
0.700198 0.0162979 0.0 
1.01315 -0.00304439 0.0 
1.0011 0.00237587 0.0 
1.0084 0.278982 0.0 
0.00635708 -0.000250327 0.0 
0 0 0.0 
0 0 0.0 
0.877807 0.26154 0.0 
0.969634 0.203146 0.0 
0.86086 0.157779 0.0 
-1.68814e-94 2.88538e-95 0.0 
0.878574 0.190138 0.0 
0 0 0.0 
1.0162 0.00652463 0.0 
0.427506 0.205687 0.0 
1.00878 0 0.0 
3.59254e-14 -2.04414e-15 0.0 
0.901464 0.211641 0.0 
0.195459 0.0100626 0.0 
0.319921 -0.021653 0.0 
1.01182 -0.00178434 0.0 
0.661661 -0.0218665 0.0 
0 0 0.0 
0.445999 0.0482745 0.0 
0.573891 0.0981449 0.0 
0.000150066 3.48281e-06 0.0 
0 0 0.0 
0.904803 -0.244576 0.0 
0.365489 -0.0323958 0.0 
0.551847 -0.00829726 0.0 
0 0 0.0 
-7.60187e-52 -6.72538e-53 0.0 
0.0333772 -0.000952777 0.0 
1.02227 -0.171984 0.0 
0 0 0.0 
0.274167 -0.00135678 0.0 
0.831093 -0.255721 0.0 
1.00648 -0.13379 0.0 
1.03231 -0.249135 0.0 
0.00186209 -0.000194714 0.0 
1.0007 -0.00118401 0.0 
0 0 0.0 
0 0 0.0 
0.172217 0.0440213 0.0 
0.0103188 0.000754923 0.0 
1.00103 -0.0329844 0.0 
1.00001 5.03885e-05 0.0 
1.03675 0.128305 0.0 
0.922238 -0.338466 0.0 
0 0 0.0 
0 0 0.0 
0.473034 0.0479848 0.0 
0.199125 0.00569714 0.0 
1.7056e-07 -8.84771e-08 0.0 
0.262361 -6.72534e-06 0.0 
0.317907 -0.000718125 0.0 
0.978952 -0.0142882 0.0 
0.24898 -0.00506396 0.0 
0.928803 0.307783 0.0 
0 0 0.0 
0.002908 -0.00045399 0.0 
1.09428 -0.15129 0.0 
0.618056 -0.150997 0.0 
0 0 0.0 
1.01938 0.233591 0.0 
0.933125 -0.366544 0.0 
0.125319 0.00647726 0.0 
0.952724 -0.00380874 0.0 
0.383407 0.0364913 0.0 
0 0 0.0 
4.86232e-14 -1.14859e-15 0.0 
0.208636 -0.0035983 0.0 
0.0679656 0.00324514 0.0 
0 0 0.0 
0.918329 0.0790331 0.0 
0.52956 0.0930678 0.0 
0.892336 0.11773 0.0 
0.759389 0.00153114 0.0 
0.893552 -0.0239428 0.0 
0 0 0.0 
1.00881 0.00183058 0.0 
0.965512 -0.0322498 0.0 
0.0152748 0.000513069 0.0 
0.245744 -0.258277 0.0 
1.01041 0.00336136 0.0 
0.519502 0.132574 0.0 
1.12542 0.0590586 0.0 
0.96584 -0.296884 0.0 
0.189006 -0.0105083 0.0 
0.698004 0.045683 0.0 
1.13049e-06 1.1397e-07 0.0 
0.759177 -0.00198735 0.0 
0.349242 0.0713973 0.0 
1.80551e-07 5.99808e-09 0.0 
1.5634e-14 -1.3505e-15 0.0 
1.02133 -0.00197575 0.0 
0.288305 -0.0149224 0.0 
1.04407 0.25118 0.0 